‘4A4T_6_fmo_input.inp’ -> ‘/scratch/hazwong/824120/./4A4T_6_fmo_input.inp’
‘rungms’ -> ‘/scratch/hazwong/824120/./rungms’
‘gms-files.csh’ -> ‘/scratch/hazwong/824120/./gms-files.csh’
----- GAMESS execution script 'rungms' -----
This job is running on host gollum060.lsa.umich.edu
under operating system Linux at Sat Dec 7 00:06:24 EST 2019
Available scratch disk space (Kbyte units) at beginning of the job is
Filesystem     1K-blocks  Used Available Use% Mounted on
/dev/sda4      426933580 33324 426900256   1% /scratch
GAMESS temporary binary files will be written to /scratch/hazwong/824120/4A4T_6/usrc
GAMESS supplementary output files will be written to /scratch/hazwong/824120/4A4T_6/src
Copying input file 4A4T_6_fmo_input.inp to your run's scratch directory...
cp 4A4T_6_fmo_input.inp /scratch/hazwong/824120/4A4T_6/usrc/4A4T_6_fmo_input.F05
unset echo
This is a GDDI run, keeping various output files on local disks
setenv OUTPUT /scratch/hazwong/824120/4A4T_6/usrc/4A4T_6_fmo_input.F06
setenv PUNCH /scratch/hazwong/824120/4A4T_6/usrc/4A4T_6_fmo_input.F07
unset echo
 
Assuming a single but multicore node.
 
/export/apps/CentOS7/gamess/src/build//ddikick.x /export/apps/CentOS7/gamess/src/build//gamess.R3.x 4A4T_6_fmo_input -ddi 1 16 gollum060.lsa.umich.edu:cpus=16 -scr /scratch/hazwong/824120/4A4T_6/usrc

 Distributed Data Interface kickoff program.
 Initiating 16 compute processes on 1 nodes to run the following command:
 /export/apps/CentOS7/gamess/src/build//gamess.R3.x 4A4T_6_fmo_input 

          ******************************************************
          *         GAMESS VERSION = 30 SEP 2018 (R3)         *
          *             FROM IOWA STATE UNIVERSITY             *
          * M.W.SCHMIDT, K.K.BALDRIDGE, J.A.BOATZ, S.T.ELBERT, *
          *   M.S.GORDON, J.H.JENSEN, S.KOSEKI, N.MATSUNAGA,   *
          *          K.A.NGUYEN, S.J.SU, T.L.WINDUS,           *
          *       TOGETHER WITH M.DUPUIS, J.A.MONTGOMERY       *
          *         J.COMPUT.CHEM.  14, 1347-1363(1993)        *
          **************** 64 BIT LINUX VERSION ****************

  SINCE 1993, STUDENTS AND POSTDOCS WORKING AT IOWA STATE UNIVERSITY
  AND ALSO IN THEIR VARIOUS JOBS AFTER LEAVING ISU HAVE MADE IMPORTANT
  CONTRIBUTIONS TO THE CODE:
     IVANA ADAMOVIC, CHRISTINE AIKENS, YURI ALEXEEV, POOJA ARORA,
     ANDREY ASADCHEV, ROB BELL, PRADIPTA BANDYOPADHYAY, JONATHAN BENTZ,
     BRETT BODE, KURT BRORSEN, CALEB CARLIN, GALINA CHABAN, WEI CHEN,
     CHEOL HO CHOI, PAUL DAY, ALBERT DEFUSCO, NUWAN DESILVA, TIM DUDLEY,
     DMITRI FEDOROV, ALEX FINDLATER, GRAHAM FLETCHER, MARK FREITAG,
     KURT GLAESEMANN, ANASTASIA GUNINA,
     DAN KEMP, GRANT MERRILL, NORIYUKI MINEZAWA, JONATHAN MULLIN,
     TAKESHI NAGATA, SEAN NEDD, HEATHER NETZLOFF, BOSILJKA NJEGIC, RYAN OLSON,
     MIKE PAK, BUU PHAM,
     SPENCER PRUITT, LUKE ROSKOP, JIM SHOEMAKER, LYUDMILA SLIPCHENKO,
     TONY SMITH, SAROM SOK LEANG, JIE SONG, TETSUYA TAKETSUGU, SIMON WEBB,
     PENG XU, SOOHAENG YOO, FEDERICO ZAHARIEV

  ADDITIONAL CODE HAS BEEN PROVIDED BY COLLABORATORS IN OTHER GROUPS:
     IOWA STATE UNIVERSITY:
          JOE IVANIC, AARON WEST, LAIMUTIS BYTAUTAS, KLAUS RUEDENBERG
     UNIVERSITY OF TOKYO: KIMIHIKO HIRAO, TAKAHITO NAKAJIMA,
          TAKAO TSUNEDA, MUNEAKI KAMIYA, SUSUMU YANAGISAWA,
          KIYOSHI YAGI, MAHITO CHIBA, SEIKEN TOKURA, NAOAKI KAWAKAMI
     UNIVERSITY OF AARHUS: FRANK JENSEN
     UNIVERSITY OF IOWA: VISVALDAS KAIRYS, HUI LI
     NATIONAL INST. OF STANDARDS AND TECHNOLOGY: WALT STEVENS, DAVID GARMER
     UNIVERSITY OF PISA: BENEDETTA MENNUCCI, JACOPO TOMASI
     UNIVERSITY OF MEMPHIS: HENRY KURTZ, PRAKASHAN KORAMBATH
     UNIVERSITY OF ALBERTA: TOBY ZENG, MARIUSZ KLOBUKOWSKI
     UNIVERSITY OF NEW ENGLAND: MARK SPACKMAN
     MIE UNIVERSITY: HIROAKI UMEDA
     NAT. INST. OF ADVANCED INDUSTRIAL SCIENCE AND TECHNOLOGY: KAZUO KITAURA
     MICHIGAN STATE UNIVERSITY:
          KAROL KOWALSKI, MARTA WLOCH, JEFFREY GOUR, JESSE LUTZ,
          WEI LI, JUN SHEN, J. EMILIANO DEUSTUA, PIOTR PIECUCH
     UNIVERSITY OF MINNESOTA:
          YINAN SHU
     UNIVERSITY OF SILESIA: MONIKA MUSIAL, STANISLAW KUCHARSKI
     FACULTES UNIVERSITAIRES NOTRE-DAME DE LA PAIX:
          OLIVIER QUINET, BENOIT CHAMPAGNE
     UNIVERSITY OF CALIFORNIA - SANTA BARBARA: BERNARD KIRTMAN
     INSTITUTE FOR MOLECULAR SCIENCE:
          KAZUYA ISHIMURA, MICHIO KATOUDA, AND SHIGERU NAGASE
     UNIVERSITY OF NOTRE DAME: ANNA POMOGAEVA, DAN CHIPMAN
     KYUSHU UNIVERSITY:
          HARUYUKI NAKANO,
          FENG LONG GU, JACEK KORCHOWIEC, MARCIN MAKOWSKI, AND YURIKO AOKI,
          HIROTOSHI MORI AND EISAKU MIYOSHI
     PENNSYLVANIA STATE UNIVERSITY:
          TZVETELIN IORDANOV, CHET SWALINA, JONATHAN SKONE,
          SHARON HAMMES-SCHIFFER
     WASEDA UNIVERSITY:
          MASATO KOBAYASHI, TOMOKO AKAMA, TSUGUKI TOUMA,
          TAKESHI YOSHIKAWA, YASUHIRO IKABATA, JUNJI SEINO,
          YUYA NAKAJIMA, HIROMI NAKAI
     NANJING UNIVERSITY: SHUHUA LI
     UNIVERSITY OF NEBRASKA:
          PEIFENG SU, DEJUN SI, NANDUN THELLAMUREGE, YALI WANG, HUI LI
     UNIVERSITY OF ZURICH: ROBERTO PEVERATI, KIM BALDRIDGE
     N. COPERNICUS UNIVERSITY AND JACKSON STATE UNIVERSITY:
          MARIA BARYSZ
     UNIVERSITY OF COPENHAGEN: Jimmy Kromann, CASPER STEINMANN
     TOKYO INSTITUTE OF TECHNOLOGY: HIROYA NAKATA
     NAGOYA UNIVERSITY: YOSHIO NISHIMOTO, STEPHAN IRLE
     MOSCOW STATE UNIVERSITY: VLADIMIR MIRONOV


 PARALLEL VERSION RUNNING ON       16 PROCESSORS IN        1 NODES.

 EXECUTION OF GAMESS BEGUN Sat Dec  7 00:06:24 2019

            ECHO OF THE FIRST FEW INPUT CARDS -
 INPUT CARD>!*** FMO 5.3 (Gamess) INPUT generated by Facio 22.1.1.32 ***                    
 INPUT CARD> $CONTRL RUNTYP=ENERGY NPRINT=-5 ISPHER=1 MAXIT=200 $END                        
 INPUT CARD> $SYSTEM MWORDS=63 MEMDDI=63 $END                                               
 INPUT CARD> $GDDI NGROUP=1 $END                                                            
 INPUT CARD> $SCF DIRSCF=.TRUE. NPUNCH=0 $END                                               
 INPUT CARD>!*** NumCPU : 2  MemPerNode : 512MB                                             
 INPUT CARD> $PCM SOLVNT=WATER IEF=-10 ICOMP=2 ICAV=1 IDISP=1 IFMO=-1 $END                  
 INPUT CARD> $PCMCAV RADII=SUAHF $END                                                       
 INPUT CARD> $TESCAV NTSALL=60 $END                                                         
 INPUT CARD> $FMOPRP                                                                        
 INPUT CARD>    NAODIR=200                                                                  
 INPUT CARD>    NGRFMO(1)=1, 1, 0, 0, 0,   0, 0, 0, 0, 0                                    
 INPUT CARD>    IPIEDA=1                                                                    
 INPUT CARD>    NPRINT=9                                                                    
 INPUT CARD> $END                                                                           
 INPUT CARD> $FMO                                                                           
 INPUT CARD>      SCFTYP(1)=RHF                                                             
 INPUT CARD>      MODGRD=10                                                                 
 INPUT CARD>      MODMUL=0                                                                  
 INPUT CARD>      MAXCAO=5                                                                  
 INPUT CARD>      MAXBND=10                                                                 
 INPUT CARD>      NLAYER=1                                                                  
 INPUT CARD>      MPLEVL(1)=2                                                               
 INPUT CARD>      NFRAG=8                                                                   
 INPUT CARD>      ICHARG(1)=-1, -1, -1, -1, -1, -1, -1, 0                                   
 INPUT CARD>      FRGNAM(1)=F1, F2, F3, F4, F5, F6, F7, F8                                  
 INPUT CARD>      indat(1)=0                                                                
 INPUT CARD>               1   -36   0                                                      
 INPUT CARD>               37   -67   0                                                     
 INPUT CARD>               68   -97   0                                                     
 INPUT CARD>               98   -127   0                                                    
 INPUT CARD>               128   -160   0                                                   
 INPUT CARD>               161   -191   0                                                   
 INPUT CARD>               192   -225   0                                                   
 INPUT CARD>               226   -253   0                                                   
 INPUT CARD> $END                                                                           
 INPUT CARD>                                                                                
 INPUT CARD> $FMOBND                                                                        
 INPUT CARD>   -37   36       6-31G*    MINI                                                
 INPUT CARD>   -68   67       6-31G*    MINI                                                
 INPUT CARD>   -98   97       6-31G*    MINI                                                
 INPUT CARD>   -128   127       6-31G*    MINI                                              
 INPUT CARD>   -161   160       6-31G*    MINI                                              
 INPUT CARD>   -192   191       6-31G*    MINI                                              
 INPUT CARD>   -226   225       6-31G*    MINI                                              
 INPUT CARD> $END                                                                           
 INPUT CARD> $FMOHYB                                                                        
 INPUT CARD> 6-31G*      15   5                                                             
 INPUT CARD>   1 0  -0.065034   0.288264   0.000000   0.000000   0.604412                   
 INPUT CARD>         0.290129   0.000000   0.000000   0.319045  -0.017106                   


 -------------------------------------------------------------
 GROUP DDI, PROGRAMMED BY: RYAN M. OLSON AND DMITRI G. FEDOROV
        FEDOROV ET AL., J. COMPUT. CHEM., 25 (2004) 872.
 -------------------------------------------------------------

 -------------------------------------------------------
 GDDI: INITIALIZATION COMPLETED FOR GROUP     1 OF     1
 WITH    16 PROCESSES BALTYP=DLB   global rank=        0
 -------------------------------------------------------

   63000000 WORDS OF MEMORY AVAILABLE


     RUN TITLE
     ---------
  FMO calculation                                                                

 THE POINT GROUP OF THE MOLECULE IS C1      
 THE ORDER OF THE PRINCIPAL AXIS IS     0

 ATOM   ATOMIC CHARGE
 H.1-1       1.0
 O.1-1       8.0
 C.1-1       6.0
 N.1-1       7.0
 P.1-1      15.0

     ATOMIC BASIS SET LIBRARY
     ----------------
 THE CONTRACTED PRIMITIVE FUNCTIONS HAVE BEEN UNNORMALIZED
 THE CONTRACTED BASIS FUNCTIONS ARE NOW NORMALIZED TO UNITY

  SHELL TYPE  PRIMITIVE        EXPONENT          CONTRACTION COEFFICIENT(S)

 H.1-1     

      1   S       1            18.7311370    0.033494604338
      1   S       2             2.8253944    0.234726953484
      1   S       3             0.6401217    0.813757326146

      2   S       4             0.1612778    1.000000000000

 O.1-1     

      3   S       5          5484.6716600    0.001831074430
      3   S       6           825.2349460    0.013950172200
      3   S       7           188.0469580    0.068445078098
      3   S       8            52.9645000    0.232714335992
      3   S       9            16.8975704    0.470192897984
      3   S      10             5.7996353    0.358520852987

      4   L      11            15.5396162   -0.110777549525    0.070874268231
      4   L      12             3.5999336   -0.148026262701    0.339752839147
      4   L      13             1.0137618    1.130767015354    0.727158577316

      5   L      14             0.2700058    1.000000000000    1.000000000000

      6   D      15             0.8000000    1.000000000000

 C.1-1     

      7   S      16          3047.5248800    0.001834737132
      7   S      17           457.3695180    0.014037322813
      7   S      18           103.9486850    0.068842622264
      7   S      19            29.2101553    0.232184443216
      7   S      20             9.2866630    0.467941348435
      7   S      21             3.1639270    0.362311985337

      8   L      22             7.8682723   -0.119332419775    0.068999066591
      8   L      23             1.8812885   -0.160854151696    0.316423960957
      8   L      24             0.5442493    1.143456437840    0.744308290898

      9   L      25             0.1687145    1.000000000000    1.000000000000

     10   D      26             0.8000000    1.000000000000

 N.1-1     

     11   S      27          4173.5114600    0.001834772160
     11   S      28           627.4579110    0.013994627002
     11   S      29           142.9020930    0.068586551812
     11   S      30            40.2343293    0.232240873040
     11   S      31            12.8202129    0.469069948082
     11   S      32             4.3904370    0.360455199063

     12   L      33            11.6263619   -0.114961181702    0.067579743878
     12   L      34             2.7162798   -0.169117478561    0.323907295893
     12   L      35             0.7722184    1.145851947027    0.740895139755

     13   L      36             0.2120315    1.000000000000    1.000000000000

     14   D      37             0.8000000    1.000000000000

 P.1-1     

     15   S      38         19413.3000000    0.001851598923
     15   S      39          2909.4200000    0.014206191735
     15   S      40           661.3640000    0.069999459277
     15   S      41           185.7590000    0.240078860331
     15   S      42            59.1943000    0.484761717984
     15   S      43            20.0310000    0.335199804993

     16   L      44           339.4780000   -0.002782170105    0.004564616191
     16   L      45            81.0101000   -0.036049901354    0.033693571881
     16   L      46            25.8780000   -0.116631004382    0.139754883368
     16   L      47             9.4522100    0.096832803638    0.339361716786
     16   L      48             3.6656600    0.614418023082    0.450920623685
     16   L      49             1.4674600    0.403798015170    0.238585800889

     17   L      50             2.1562300   -0.252924113863   -0.017765312733
     17   L      51             0.7489970    0.032851844678    0.274058196433
     17   L      52             0.2831450    1.081254761783    0.785421562957

     18   L      53             0.0998317    1.000000000000    1.000000000000

     19   D      54             0.5500000    1.000000000000

 TOTAL NUMBER OF BASIS SET SHELLS             =   19
 NUMBER OF CARTESIAN GAUSSIAN BASIS FUNCTIONS =   66

     $CONTRL OPTIONS
     ---------------
 SCFTYP=RHF          RUNTYP=ENERGY       EXETYP=RUN     
 MPLEVL=       0     CITYP =NONE         CCTYP =NONE         VBTYP =NONE    
 DFTTYP=NONE         TDDFT =NONE    
 MULT  =       1     ICHARG=       0     NZVAR =       0     COORD =UNIQUE  
 PP    =NONE         RELWFN=NONE         LOCAL =NONE         NUMGRD=       F
 ISPHER=       1     NOSYM =       0     MAXIT =     200     UNITS =ANGS    
 PLTORB=       F     MOLPLT=       F     AIMPAC=       F     FRIEND=        
 NPRINT=      -5     IREST =       0     GEOM  =INPUT   
 NORMF =       0     NORMP =       0     ITOL  =      24     ICUT  =      12
 INTTYP=BEST         GRDTYP=BEST         QMTTOL= 1.0E-06

     $SYSTEM OPTIONS
     ---------------
  REPLICATED MEMORY=    63000000 WORDS (ON EVERY NODE).
 DISTRIBUTED MEMDDI=          63 MILLION WORDS IN AGGREGATE,
 MEMDDI DISTRIBUTED OVER  16 PROCESSORS IS     3937500 WORDS/PROCESSOR.
 TOTAL MEMORY REQUESTED ON EACH PROCESSOR=    66937500 WORDS.
 TIMLIM=      525600.00 MINUTES, OR     365.0 DAYS.
 PARALL= T  BALTYP=  DLB     KDIAG=    0  COREFL= F
 MXSEQ2=     300 MXSEQ3=     150  mem10=         0

 ** LOOKING UP INTERNALLY STORED DATA FOR SOLVENT=WATER    **
 OPTICAL AND PHYSICAL CONSTANTS:
 EPS= 78.390; EPSINF=  1.776; RSOLV=  1.385 A; VMOL=  18.070 ML/MOL;
 TCE= .25700E-03 1/K; STEN= 71.810 DYN/CM;  DSTEN=  0.6500; CMF=  1.2770


     -----------------------------------
     INPUT FOR PCM SOLVATION CALCULATION 
     -----------------------------------
     IEF   =     -10
     ICOMP =       2     IFIELD=       0     ICAV  =       1
     IDISP =       1     IREP  =       0     IDP   =       0

     SOLVNT=WATER        EPS   = 78.3900     EPSINF=  1.7760
     VMOL  = 18.0700     TCE   =  0.00025700 STEN  = 71.8100
     DSTEN =  0.6500     CMF   =  1.2770     RSOLV =  1.3850

     NESFP =       0
     OMEGA = 40.0000     RET   =100.0000     FRO   =  0.7000

     TABS  =298.0000     IPRINT=       0

     --------------------------------
     INPUT FOR ITERATIVE C-PCM METHOD 
     --------------------------------
     IPCMIT  =         1     MXDIIS  =        50
     MXITR1  =       200     MXITR2  =       200
     THRES   = 0.100E-09     IMUL    =         3
     RCUT(1) =   20.0000     RCUT(2) =   50.0000

     IDIRCT  =         1
     IMGABI  =         0     RABI    =    4.0000
     IMGASC  =         0     RASC    =   20.0000
     THRSLS  = 0.500E-03     DENSLS  =    0.0100
     IEFPOL  =         1     REFPOL  =    0.0000

     INPUT FOR ISOTROPIC DIELECTRICS
     -------------------------------
     EPS=    78.39

          ----------------
          PROPERTIES INPUT
          ----------------

     MOMENTS            FIELD           POTENTIAL          DENSITY
 IEMOM =       1   IEFLD =       0   IEPOT =       0   IEDEN =       0
 WHERE =COMASS     WHERE =NUCLEI     WHERE =NUCLEI     WHERE =NUCLEI  
 OUTPUT=BOTH       OUTPUT=BOTH       OUTPUT=NONE       OUTPUT=BOTH    
 IEMINT=       0   IEFINT=       0                     IEDINT=       0
                                                       MORB  =       0
          EXTRAPOLATION IN EFFECT
          SOSCF IN EFFECT
 ORBITAL PRINTING OPTION: NPREO=     1 32767     2     1

     -------------------------------
     INTEGRAL TRANSFORMATION OPTIONS
     -------------------------------
     NWORD  =            0
     CUTOFF = 1.0E-10     MPTRAN =       0
     DIRTRF =       T     AOINTS =DUP     

          ----------------------
          INTEGRAL INPUT OPTIONS
          ----------------------
 NOPK  =       1 NORDER=       0 SCHWRZ=       T

 ..... DONE SETTING UP THE RUN .....
 CPU     0: STEP CPU TIME=     0.03 TOTAL CPU TIME=          0.0 (      0.0 MIN)
 TOTAL WALL CLOCK TIME=          0.1 SECONDS, CPU UTILIZATION IS    42.86%
 CPU     0: STEP CPU TIME=     0.00 TOTAL CPU TIME=          0.0 (      0.0 MIN)
 TOTAL WALL CLOCK TIME=          0.1 SECONDS, CPU UTILIZATION IS    42.86%

                    ----------------------
                    AO INTEGRAL TECHNOLOGY
                    ----------------------
     S,P,L SHELL ROTATED AXIS INTEGRALS, REPROGRAMMED BY
        KAZUYA ISHIMURA (IMS) AND JOSE SIERRA (SYNSTAR).
     S,P,D,L SHELL ROTATED AXIS INTEGRALS PROGRAMMED BY
        KAZUYA ISHIMURA (INSTITUTE FOR MOLECULAR SCIENCE).
     S,P,D,F,G SHELL TO TOTAL QUARTET ANGULAR MOMENTUM SUM 5,
        ERIC PROGRAM BY GRAHAM FLETCHER (ELORET AND NASA ADVANCED
        SUPERCOMPUTING DIVISION, AMES RESEARCH CENTER).
     S,P,D,F,G,L SHELL GENERAL RYS QUADRATURE PROGRAMMED BY
        MICHEL DUPUIS (PACIFIC NORTHWEST NATIONAL LABORATORY).
 Setting modorb=1 flag...
 Setting modorb=1 flag...

          -----------------------
          MP2 CONTROL INFORMATION
          -----------------------
          NACORE =        8  NBCORE =        8
          LMOMP2 =        F  AOINTS = DUP     
          METHOD =        2  NWORD  =               0
          MP2PRP =        F  OSPT   = NONE    
          CUTOFF = 1.00E-12  CPHFBS = BASISAO 
          CODE   = IMS     

          NUMBER OF CORE -A-  ORBITALS =     8
          NUMBER OF CORE -B-  ORBITALS =     8
          NUMBER OF OCC. -A-  ORBITALS =    18
          NUMBER OF OCC. -B-  ORBITALS =    18
          NUMBER OF MOLECULAR ORBITALS =    66
          NUMBER OF   BASIS  FUNCTIONS =    66

 CPU     0: STEP CPU TIME=     0.02 TOTAL CPU TIME=          0.0 (      0.0 MIN)
 TOTAL WALL CLOCK TIME=          0.1 SECONDS, CPU UTILIZATION IS    45.45%
 CPU     0: STEP CPU TIME=     0.00 TOTAL CPU TIME=          0.0 (      0.0 MIN)
 TOTAL WALL CLOCK TIME=          0.1 SECONDS, CPU UTILIZATION IS    45.45%

     INPUT FOR CAVITY DEFINITION 
     ---------------------------
   ATOM               COORDINATES                RADIUS       EPS
      1      0.5870     -6.2810     10.7930      0.0100     78.3900
      2      0.3850     -5.3600     11.0440      1.5900     78.3900
      3      1.2050     -5.0460     12.1780      1.7700     78.3900
      4      2.2440     -5.3770     11.9650      0.0100     78.3900
      5      0.8320     -5.6330     13.0410      0.0100     78.3900
      6      1.2380     -3.5580     12.5830      1.7700     78.3900
      7      2.1120     -3.3480     13.2360      0.0100     78.3900
      8      1.3650     -2.7130     11.4120      1.5900     78.3900
      9      0.4100     -1.6680     11.4390      1.7700     78.3900
     10      0.9980     -0.7240     11.3900      0.0100     78.3900
     11     -0.4570     -1.7230     10.2680      1.6800     78.3900
     12     -1.1710     -0.6920      9.7260      1.7700     78.3900
     13     -2.0970      2.6530      9.6580      1.6800     78.3900
     14     -1.6600      3.0410     10.4710      0.0100     78.3900
     15     -2.6570      3.2340      9.0680      0.0100     78.3900
     16     -1.2200      0.5730     10.1840      1.6800     78.3900
     17     -1.9570      1.3630      9.3980      1.7700     78.3900
     18     -2.6200      0.9000      8.2900      1.6800     78.3900
     19     -3.1600      1.5520      7.7410      0.0100     78.3900
     20     -2.5940     -0.4070      7.8110      1.7700     78.3900
     21     -3.2020     -0.8040      6.8120      1.5900     78.3900
     22     -1.7810     -1.2290      8.6120      1.7700     78.3900
     23     -1.4410     -2.5610      8.4440      1.6800     78.3900
     24     -0.6580     -2.8110      9.4540      1.7700     78.3900
     25     -0.1780     -3.7650      9.6410      0.0100     78.3900
     26     -0.3540     -1.7100     12.7510      1.7700     78.3900
     27     -1.4530     -1.6150     12.6040      0.0100     78.3900
     28      0.0890     -0.6690     13.5950      1.5900     78.3900
     29     -0.1920     -0.8920     14.4960      0.0100     78.3900
     30     -0.0250     -3.0940     13.3190      1.7700     78.3900
     31     -0.8330     -3.7970     13.0020      0.0100     78.3900
     32      0.2070     -3.1010     14.7510      1.5900     78.3900
     33     -0.5770     -4.0340     15.7270      2.1000     78.3900
     34     -0.3050     -5.4500     15.3960      1.5900     78.3900
     35     -0.3050     -3.6050     17.1210      1.5900     78.3900
     36     -2.0440     -3.6760     15.3470      1.5900     78.3900
     37     -2.6310     -2.4290     15.7610      1.7700     78.3900
     38     -2.1790     -1.5800     15.1960      0.0100     78.3900
     39     -2.4680     -2.2290     16.8470      0.0100     78.3900
     40     -4.1310     -2.4710     15.5080      1.7700     78.3900
     41     -4.7040     -2.0890     16.3820      0.0100     78.3900
     42     -4.4070     -1.5890     14.3720      1.5900     78.3900
     43     -5.5060     -2.0890     13.6540      1.7700     78.3900
     44     -6.2980     -1.3080     13.7340      0.0100     78.3900
     45     -5.1800     -2.3660     12.2250      1.6800     78.3900
     46     -4.1460     -3.2230     11.9170      1.7700     78.3900
     47     -3.5270     -3.5740     12.7390      0.0100     78.3900
     48     -3.8550     -3.5430     10.6510      1.7700     78.3900
     49     -3.0480     -4.2270     10.3970      0.0100     78.3900
     50     -5.9530     -1.8280     11.1990      1.7700     78.3900
     51     -6.9110     -1.0900     11.4780      1.5900     78.3900
     52     -5.6530     -2.1220      9.9100      1.6800     78.3900
     53     -4.6340     -2.9490      9.6220      1.7700     78.3900
     54     -4.3760     -3.2350      8.3460      1.6800     78.3900
     55     -4.8450     -2.7700      7.6020      0.0100     78.3900
     56     -3.5870     -3.8000      8.1000      0.0100     78.3900
     57     -5.9700     -3.3240     14.3820      1.7700     78.3900
     58     -6.2420     -4.0970     13.6650      0.0100     78.3900
     59     -7.0010     -3.0230     15.3050      1.5900     78.3900
     60     -7.2360     -3.8600     15.7220      0.0100     78.3900
     61     -4.7200     -3.8230     15.0730      1.7700     78.3900
     62     -4.0380     -4.2650     14.3210      0.0100     78.3900
     63     -4.9360     -4.7430     16.1760      1.5900     78.3900
     64     -5.0400     -6.2960     15.8050      2.1000     78.3900
     65     -5.3080     -7.0590     17.0440      1.5900     78.3900
     66     -3.8600     -6.7120     15.0140      1.5900     78.3900
     67     -6.2890     -6.4010     14.8710      1.5900     78.3900
     68     -7.6270     -6.1750     15.3490      1.7700     78.3900
     69     -7.6500     -5.4200     16.1720      0.0100     78.3900
     70     -8.0320     -7.1150     15.7840      0.0100     78.3900
     71     -8.6000     -5.6970     14.2400      1.7700     78.3900
     72     -9.2370     -4.9010     14.6850      0.0100     78.3900
     73     -7.9690     -5.1600     13.0410      1.5900     78.3900
     74     -8.9060     -5.1060     11.9990      1.7700     78.3900
     75     -9.1160     -4.0200     11.8520      0.0100     78.3900
     76     -8.3320     -5.6840     10.7420      1.6800     78.3900
     77     -7.3530     -4.9340     10.1410      1.7700     78.3900
     78     -7.0560     -4.0510     10.7060      0.0100     78.3900
     79     -8.5510     -6.9750     10.2850      1.7700     78.3900
     80     -9.1800     -7.8250     10.8930      1.5900     78.3900
     81     -7.9850     -7.2860      9.0890      1.6800     78.3900
     82     -8.2600     -8.1770      8.7110      0.0100     78.3900
     83     -7.1050     -6.5340      8.3680      1.7700     78.3900
     84     -6.6680     -6.9420      7.2940      1.5900     78.3900
     85     -6.7530     -5.3100      8.9980      1.7700     78.3900
     86     -6.0120     -4.7350      8.4810      0.0100     78.3900
     87    -10.1680     -5.7920     12.5410      1.7700     78.3900
     88    -10.7170     -6.3840     11.7850      0.0100     78.3900
     89    -11.0460     -4.8350     13.1150      1.5900     78.3900
     90    -11.5220     -4.3530     12.4230      0.0100     78.3900
     91     -9.5240     -6.6950     13.6000      1.7700     78.3900
     92     -8.8130     -7.3960     13.1030      0.0100     78.3900
     93    -10.4110     -7.3320     14.5570      1.5900     78.3900
     94    -10.3550     -8.9180     14.5020      2.1000     78.3900
     95    -11.3300     -9.4510     15.4790      1.5900     78.3900
     96     -8.9630     -9.3830     14.6780      1.5900     78.3900
     97    -10.7870     -9.2200     13.0230      1.5900     78.3900
     98    -11.5340    -10.3850     12.6410      1.7700     78.3900
     99    -11.3610    -11.2420     13.3330      0.0100     78.3900
    100    -11.1840    -10.7120     11.6370      0.0100     78.3900
    101    -13.0370    -10.1110     12.5440      1.7700     78.3900
    102    -13.5770    -11.0650     12.3640      0.0100     78.3900
    103    -13.5610     -9.5590     13.7850      1.5900     78.3900
    104    -14.7430     -8.8360     13.5040      1.7700     78.3900
    105    -15.5400     -9.4610     13.9700      0.0100     78.3900
    106    -14.8050     -7.4790     14.1340      1.6800     78.3900
    107    -13.8500     -7.0530     15.0390      1.7700     78.3900
    108    -12.9890     -7.7140     15.1630      0.0100     78.3900
    109    -15.9370     -6.7160     13.9070      1.7700     78.3900
    110    -16.8550     -7.0700     13.1760      1.5900     78.3900
    111    -15.9860     -5.5250     14.5720      1.6800     78.3900
    112    -16.8500     -5.0080     14.4570      0.0100     78.3900
    113    -15.1380     -5.0950     15.5650      1.7700     78.3900
    114    -15.4010     -4.0700     16.1950      1.5900     78.3900
    115    -13.9870     -5.9280     15.7600      1.7700     78.3900
    116    -13.2650     -5.6370     16.5170      0.0100     78.3900
    117    -14.9190     -8.8400     11.9900      1.7700     78.3900
    118    -15.2790     -7.8750     11.5810      0.0100     78.3900
    119    -15.8210     -9.8820     11.6520      1.5900     78.3900
    120    -15.7960     -9.9950     10.6890      0.0100     78.3900
    121    -13.5050     -9.1110     11.4880      1.7700     78.3900
    122    -12.8670     -8.2020     11.5990      0.0100     78.3900
    123    -13.4630     -9.6870     10.1670      1.5900     78.3900
    124    -12.6850     -9.0180      8.9770      2.1000     78.3900
    125    -12.8920     -9.8740      7.7870      1.5900     78.3900
    126    -11.2910     -8.7620      9.3570      1.5900     78.3900
    127    -13.3770     -7.6180      8.7490      1.5900     78.3900
    128    -14.3830     -7.4790      7.7140      1.7700     78.3900
    129    -14.8570     -8.4540      7.4500      0.0100     78.3900
    130    -13.9120     -7.1040      6.7790      0.0100     78.3900
    131    -15.5570     -6.5560      8.1050      1.7700     78.3900
    132    -16.4920     -7.0680      7.7860      0.0100     78.3900
    133    -15.6570     -6.3570      9.5490      1.5900     78.3900
    134    -16.2240     -5.0860      9.8080      1.7700     78.3900
    135    -17.1090     -5.2660     10.4590      0.0100     78.3900
    136    -15.2890     -4.2080     10.5330      1.6800     78.3900
    137    -14.4410     -2.5330     11.6840      1.7700     78.3900
    138    -13.4540     -3.5200     11.6520      1.6800     78.3900
    139    -14.0120     -4.4960     10.9690      1.7700     78.3900
    140    -13.5410     -5.4560     10.7400      0.0100     78.3900
    141    -15.6350     -0.5240     12.1120      1.6800     78.3900
    142    -16.6230     -1.0440     11.3800      1.7700     78.3900
    143    -17.5060     -0.4040     11.2610      0.0100     78.3900
    144    -16.7000     -2.2490     10.8060      1.6800     78.3900
    145    -15.5670     -2.9450     10.9930      1.7700     78.3900
    146    -14.5100     -1.2610     12.2990      1.7700     78.3900
    147    -13.5370     -0.7460     13.0670      1.6800     78.3900
    148    -12.6940     -1.2470     13.2730      0.0100     78.3900
    149    -13.6520      0.1640     13.4700      0.0100     78.3900
    150    -16.6790     -4.5280      8.4690      1.7700     78.3900
    151    -16.6670     -3.4210      8.4230      0.0100     78.3900
    152    -17.9830     -5.0100      8.1810      1.5900     78.3900
    153    -17.9570     -5.9780      8.1320      0.0100     78.3900
    154    -15.6290     -5.1300      7.5390      1.7700     78.3900
    155    -14.6410     -4.6500      7.7400      0.0100     78.3900
    156    -16.0130     -5.1480      6.1380      1.5900     78.3900
    157    -15.0310     -4.5020      5.0850      2.1000     78.3900
    158    -13.6570     -4.9320      5.3970      1.5900     78.3900
    159    -15.5090     -4.7610      3.7070      1.5900     78.3900
    160    -15.1430     -2.9800      5.3560      1.5900     78.3900
    161    -16.1380     -2.0090      5.0310      1.7700     78.3900
    162    -16.8890     -2.0010      5.8530      0.0100     78.3900
    163    -16.6630     -2.2810      4.0940      0.0100     78.3900
    164    -15.5910     -0.5560      4.8900      1.7700     78.3900
    165    -16.3940      0.1000      4.4970      0.0100     78.3900
    166    -15.2830     -0.0690      6.2480      1.5900     78.3900
    167    -13.9900      0.5250      6.2840      1.7700     78.3900
    168    -14.0950      1.4740      6.8640      0.0100     78.3900
    169    -12.9680     -0.3390      6.9620      1.6800     78.3900
    170    -12.9540     -1.6400      6.6110      1.7700     78.3900
    171    -13.5240     -1.8590      5.7540      0.0100     78.3900
    172    -12.2140     -2.5620      7.1900      1.7700     78.3900
    173    -12.2780     -3.6130      6.9070      0.0100     78.3900
    174    -12.0140      0.1000      7.8830      1.7700     78.3900
    175    -11.9530      1.3120      8.1310      1.5900     78.3900
    176    -11.2000     -0.8170      8.4950      1.6800     78.3900
    177    -11.3100     -2.1260      8.1750      1.7700     78.3900
    178    -10.5460     -3.0470      8.7450      1.6800     78.3900
    179     -9.9050     -2.7670      9.4490      0.0100     78.3900
    180    -10.6320     -4.0090      8.4840      0.0100     78.3900
    181    -13.6640      0.8610      4.8650      1.7700     78.3900
    182    -12.5830      0.8510      4.7190      0.0100     78.3900
    183    -14.2510      2.1150      4.5670      1.5900     78.3900
    184    -15.2090      1.9910      4.5010      0.0100     78.3900
    185    -14.2990     -0.2770      4.0520      1.7700     78.3900
    186    -13.6560     -1.1810      4.0860      0.0100     78.3900
    187    -14.5970      0.0220      2.6630      1.5900     78.3900
    188    -13.4150      0.4670      1.6790      2.1000     78.3900
    189    -12.2390     -0.4200      1.8620      1.5900     78.3900
    190    -13.9810      0.5300      0.3140      1.5900     78.3900
    191    -13.1120      1.9600      2.0660      1.5900     78.3900
    192    -11.9130      2.7250      1.8470      1.7700     78.3900
    193    -12.1800      3.6650      1.3210      0.0100     78.3900
    194    -11.2000      2.1920      1.1880      0.0100     78.3900
    195    -11.1780      3.0800      3.1520      1.7700     78.3900
    196    -11.7940      3.7090      3.8250      0.0100     78.3900
    197    -10.9080      1.8510      3.8150      1.5900     78.3900
    198     -9.8230      1.9450      4.6640      1.7700     78.3900
    199    -10.2170      2.2470      5.6620      0.0100     78.3900
    200     -9.1640      0.6410      4.7450      1.6800     78.3900
    201     -8.4550      0.1160      5.7900      1.7700     78.3900
    202     -7.2260      0.3390      9.0070      1.6800     78.3900
    203     -6.8220     -0.2870      9.6760      0.0100     78.3900
    204     -7.6080      1.2050      9.3250      0.0100     78.3900
    205     -8.2280      0.7110      6.9720      1.6800     78.3900
    206     -7.5240     -0.0630      7.7900      1.7700     78.3900
    207     -7.0460     -1.2990      7.4420      1.6800     78.3900
    208     -6.5240     -1.8000      8.1400      0.0100     78.3900
    209     -7.2300     -1.9190      6.2160      1.7700     78.3900
    210     -6.7470     -3.0300      5.9760      1.5900     78.3900
    211     -8.0260     -1.1260      5.3510      1.7700     78.3900
    212     -8.4840     -1.3900      4.0680      1.6800     78.3900
    213     -9.1650     -0.3140      3.7500      1.7700     78.3900
    214     -9.7190     -0.1570      2.8180      0.0100     78.3900
    215     -8.9300      3.0100      4.0880      1.7700     78.3900
    216     -8.0250      2.5800      3.6140      0.0100     78.3900
    217     -8.5920      3.9030      5.1210      1.5900     78.3900
    218     -8.1050      4.6670      4.7660      0.0100     78.3900
    219     -9.7830      3.6660      2.9870      1.7700     78.3900
    220     -9.4470      3.2400      2.0090      0.0100     78.3900
    221     -9.8070      5.1110      2.9770      1.5900     78.3900
    222     -8.7230      5.8940      2.1510      2.1000     78.3900
    223     -8.2070      5.0290      1.0670      1.5900     78.3900
    224     -9.2960      7.1960      1.7460      1.5900     78.3900
    225     -7.5460      6.1230      3.1750      1.5900     78.3900
    226     -7.5690      7.2470      4.0860      1.7700     78.3900
    227     -8.5750      7.3550      4.5580      0.0100     78.3900
    228     -7.3520      8.1910      3.5310      0.0100     78.3900
    229     -6.5480      7.0760      5.2310      1.7700     78.3900
    230     -6.7860      7.7550      6.0800      0.0100     78.3900
    231     -6.6230      5.7250      5.7260      1.5900     78.3900
    232     -5.3470      5.2270      6.0470      1.7700     78.3900
    233     -5.3180      5.2850      7.1600      0.0100     78.3900
    234     -5.1860      3.8200      5.6240      1.6800     78.3900
    235     -5.7010      3.3870      4.4220      1.7700     78.3900
    236     -6.2580      4.1300      3.8470      0.0100     78.3900
    237     -5.5910      2.1050      4.0360      1.7700     78.3900
    238     -6.0520      1.7180      3.1300      0.0100     78.3900
    239     -4.4250      2.9560      6.3960      1.7700     78.3900
    240     -3.8660      3.3790      7.4230      1.5900     78.3900
    241     -4.3050      1.6740      6.0170      1.6800     78.3900
    242     -4.8760      1.2250      4.8900      1.7700     78.3900
    243     -4.7550     -0.0670      4.5900      1.6800     78.3900
    244     -4.1950     -0.6060      5.2260      0.0100     78.3900
    245     -5.1290     -0.4840      3.7620      0.0100     78.3900
    246     -4.2800      6.1400      5.4780      1.7700     78.3900
    247     -3.6840      5.6280      4.6900      0.0100     78.3900
    248     -3.4100      6.5850      6.5060      1.5900     78.3900
    249     -3.9150      7.1510      7.1150      0.0100     78.3900
    250     -5.0860      7.2830      4.8300      1.7700     78.3900
    251     -5.0520      7.1540      3.7240      0.0100     78.3900
    252     -4.6510      8.6110      5.1740      1.5900     78.3900
    253     -3.6910      8.6790      5.0190      0.0100     78.3900

     ----------------------------
     INPUT FOR TESSERA DEFINITION
     ----------------------------
     NTSALL  =        60     MTHALL  =         4
     MTHAUT  =         0     AUTFRE  =    2.0000
     NTSFRZ  =        60     KEEPSM  =         0
     AREAKP  =   10.0000     BONDRY  =    1.0000
     AREATL  =    0.0100

     SPHERE     INITS       METHOD
          1        60       FIXPVA
          2        60       FIXPVA
          3        60       FIXPVA
          4        60       FIXPVA
          5        60       FIXPVA
          6        60       FIXPVA
          7        60       FIXPVA
          8        60       FIXPVA
          9        60       FIXPVA
         10        60       FIXPVA
         11        60       FIXPVA
         12        60       FIXPVA
         13        60       FIXPVA
         14        60       FIXPVA
         15        60       FIXPVA
         16        60       FIXPVA
         17        60       FIXPVA
         18        60       FIXPVA
         19        60       FIXPVA
         20        60       FIXPVA
         21        60       FIXPVA
         22        60       FIXPVA
         23        60       FIXPVA
         24        60       FIXPVA
         25        60       FIXPVA
         26        60       FIXPVA
         27        60       FIXPVA
         28        60       FIXPVA
         29        60       FIXPVA
         30        60       FIXPVA
         31        60       FIXPVA
         32        60       FIXPVA
         33        60       FIXPVA
         34        60       FIXPVA
         35        60       FIXPVA
         36        60       FIXPVA
         37        60       FIXPVA
         38        60       FIXPVA
         39        60       FIXPVA
         40        60       FIXPVA
         41        60       FIXPVA
         42        60       FIXPVA
         43        60       FIXPVA
         44        60       FIXPVA
         45        60       FIXPVA
         46        60       FIXPVA
         47        60       FIXPVA
         48        60       FIXPVA
         49        60       FIXPVA
         50        60       FIXPVA
         51        60       FIXPVA
         52        60       FIXPVA
         53        60       FIXPVA
         54        60       FIXPVA
         55        60       FIXPVA
         56        60       FIXPVA
         57        60       FIXPVA
         58        60       FIXPVA
         59        60       FIXPVA
         60        60       FIXPVA
         61        60       FIXPVA
         62        60       FIXPVA
         63        60       FIXPVA
         64        60       FIXPVA
         65        60       FIXPVA
         66        60       FIXPVA
         67        60       FIXPVA
         68        60       FIXPVA
         69        60       FIXPVA
         70        60       FIXPVA
         71        60       FIXPVA
         72        60       FIXPVA
         73        60       FIXPVA
         74        60       FIXPVA
         75        60       FIXPVA
         76        60       FIXPVA
         77        60       FIXPVA
         78        60       FIXPVA
         79        60       FIXPVA
         80        60       FIXPVA
         81        60       FIXPVA
         82        60       FIXPVA
         83        60       FIXPVA
         84        60       FIXPVA
         85        60       FIXPVA
         86        60       FIXPVA
         87        60       FIXPVA
         88        60       FIXPVA
         89        60       FIXPVA
         90        60       FIXPVA
         91        60       FIXPVA
         92        60       FIXPVA
         93        60       FIXPVA
         94        60       FIXPVA
         95        60       FIXPVA
         96        60       FIXPVA
         97        60       FIXPVA
         98        60       FIXPVA
         99        60       FIXPVA
        100        60       FIXPVA
        101        60       FIXPVA
        102        60       FIXPVA
        103        60       FIXPVA
        104        60       FIXPVA
        105        60       FIXPVA
        106        60       FIXPVA
        107        60       FIXPVA
        108        60       FIXPVA
        109        60       FIXPVA
        110        60       FIXPVA
        111        60       FIXPVA
        112        60       FIXPVA
        113        60       FIXPVA
        114        60       FIXPVA
        115        60       FIXPVA
        116        60       FIXPVA
        117        60       FIXPVA
        118        60       FIXPVA
        119        60       FIXPVA
        120        60       FIXPVA
        121        60       FIXPVA
        122        60       FIXPVA
        123        60       FIXPVA
        124        60       FIXPVA
        125        60       FIXPVA
        126        60       FIXPVA
        127        60       FIXPVA
        128        60       FIXPVA
        129        60       FIXPVA
        130        60       FIXPVA
        131        60       FIXPVA
        132        60       FIXPVA
        133        60       FIXPVA
        134        60       FIXPVA
        135        60       FIXPVA
        136        60       FIXPVA
        137        60       FIXPVA
        138        60       FIXPVA
        139        60       FIXPVA
        140        60       FIXPVA
        141        60       FIXPVA
        142        60       FIXPVA
        143        60       FIXPVA
        144        60       FIXPVA
        145        60       FIXPVA
        146        60       FIXPVA
        147        60       FIXPVA
        148        60       FIXPVA
        149        60       FIXPVA
        150        60       FIXPVA
        151        60       FIXPVA
        152        60       FIXPVA
        153        60       FIXPVA
        154        60       FIXPVA
        155        60       FIXPVA
        156        60       FIXPVA
        157        60       FIXPVA
        158        60       FIXPVA
        159        60       FIXPVA
        160        60       FIXPVA
        161        60       FIXPVA
        162        60       FIXPVA
        163        60       FIXPVA
        164        60       FIXPVA
        165        60       FIXPVA
        166        60       FIXPVA
        167        60       FIXPVA
        168        60       FIXPVA
        169        60       FIXPVA
        170        60       FIXPVA
        171        60       FIXPVA
        172        60       FIXPVA
        173        60       FIXPVA
        174        60       FIXPVA
        175        60       FIXPVA
        176        60       FIXPVA
        177        60       FIXPVA
        178        60       FIXPVA
        179        60       FIXPVA
        180        60       FIXPVA
        181        60       FIXPVA
        182        60       FIXPVA
        183        60       FIXPVA
        184        60       FIXPVA
        185        60       FIXPVA
        186        60       FIXPVA
        187        60       FIXPVA
        188        60       FIXPVA
        189        60       FIXPVA
        190        60       FIXPVA
        191        60       FIXPVA
        192        60       FIXPVA
        193        60       FIXPVA
        194        60       FIXPVA
        195        60       FIXPVA
        196        60       FIXPVA
        197        60       FIXPVA
        198        60       FIXPVA
        199        60       FIXPVA
        200        60       FIXPVA
        201        60       FIXPVA
        202        60       FIXPVA
        203        60       FIXPVA
        204        60       FIXPVA
        205        60       FIXPVA
        206        60       FIXPVA
        207        60       FIXPVA
        208        60       FIXPVA
        209        60       FIXPVA
        210        60       FIXPVA
        211        60       FIXPVA
        212        60       FIXPVA
        213        60       FIXPVA
        214        60       FIXPVA
        215        60       FIXPVA
        216        60       FIXPVA
        217        60       FIXPVA
        218        60       FIXPVA
        219        60       FIXPVA
        220        60       FIXPVA
        221        60       FIXPVA
        222        60       FIXPVA
        223        60       FIXPVA
        224        60       FIXPVA
        225        60       FIXPVA
        226        60       FIXPVA
        227        60       FIXPVA
        228        60       FIXPVA
        229        60       FIXPVA
        230        60       FIXPVA
        231        60       FIXPVA
        232        60       FIXPVA
        233        60       FIXPVA
        234        60       FIXPVA
        235        60       FIXPVA
        236        60       FIXPVA
        237        60       FIXPVA
        238        60       FIXPVA
        239        60       FIXPVA
        240        60       FIXPVA
        241        60       FIXPVA
        242        60       FIXPVA
        243        60       FIXPVA
        244        60       FIXPVA
        245        60       FIXPVA
        246        60       FIXPVA
        247        60       FIXPVA
        248        60       FIXPVA
        249        60       FIXPVA
        250        60       FIXPVA
        251        60       FIXPVA
        252        60       FIXPVA
        253        60       FIXPVA

     ------------------------------
      FIXPVA TESSELLATION FOR PCM
         PEIFENG SU AND HUI LI
     UNIVERSITY OF NEBRASKA-LINCOLN
     ------------------------------


 PCM DIMENSIONS: MXSP=   253, MXTS=     10120, MEMORY=        103986

     INPUT FOR CAVITY DEFINITION 
     ---------------------------
   ATOM               COORDINATES                RADIUS       EPS
      1      0.5870     -6.2810     10.7930      0.0100     78.3900
      2      0.3850     -5.3600     11.0440      1.5900     78.3900
      3      1.2050     -5.0460     12.1780      1.7700     78.3900
      4      2.2440     -5.3770     11.9650      0.0100     78.3900
      5      0.8320     -5.6330     13.0410      0.0100     78.3900
      6      1.2380     -3.5580     12.5830      1.7700     78.3900
      7      2.1120     -3.3480     13.2360      0.0100     78.3900
      8      1.3650     -2.7130     11.4120      1.5900     78.3900
      9      0.4100     -1.6680     11.4390      1.7700     78.3900
     10      0.9980     -0.7240     11.3900      0.0100     78.3900
     11     -0.4570     -1.7230     10.2680      1.6800     78.3900
     12     -1.1710     -0.6920      9.7260      1.7700     78.3900
     13     -2.0970      2.6530      9.6580      1.6800     78.3900
     14     -1.6600      3.0410     10.4710      0.0100     78.3900
     15     -2.6570      3.2340      9.0680      0.0100     78.3900
     16     -1.2200      0.5730     10.1840      1.6800     78.3900
     17     -1.9570      1.3630      9.3980      1.7700     78.3900
     18     -2.6200      0.9000      8.2900      1.6800     78.3900
     19     -3.1600      1.5520      7.7410      0.0100     78.3900
     20     -2.5940     -0.4070      7.8110      1.7700     78.3900
     21     -3.2020     -0.8040      6.8120      1.5900     78.3900
     22     -1.7810     -1.2290      8.6120      1.7700     78.3900
     23     -1.4410     -2.5610      8.4440      1.6800     78.3900
     24     -0.6580     -2.8110      9.4540      1.7700     78.3900
     25     -0.1780     -3.7650      9.6410      0.0100     78.3900
     26     -0.3540     -1.7100     12.7510      1.7700     78.3900
     27     -1.4530     -1.6150     12.6040      0.0100     78.3900
     28      0.0890     -0.6690     13.5950      1.5900     78.3900
     29     -0.1920     -0.8920     14.4960      0.0100     78.3900
     30     -0.0250     -3.0940     13.3190      1.7700     78.3900
     31     -0.8330     -3.7970     13.0020      0.0100     78.3900
     32      0.2070     -3.1010     14.7510      1.5900     78.3900
     33     -0.5770     -4.0340     15.7270      2.1000     78.3900
     34     -0.3050     -5.4500     15.3960      1.5900     78.3900
     35     -0.3050     -3.6050     17.1210      1.5900     78.3900
     36     -2.0440     -3.6760     15.3470      1.5900     78.3900
     37     -2.6310     -2.4290     15.7610      1.7700     78.3900
     38     -2.1790     -1.5800     15.1960      0.0100     78.3900
     39     -2.4680     -2.2290     16.8470      0.0100     78.3900
     40     -4.1310     -2.4710     15.5080      1.7700     78.3900
     41     -4.7040     -2.0890     16.3820      0.0100     78.3900
     42     -4.4070     -1.5890     14.3720      1.5900     78.3900
     43     -5.5060     -2.0890     13.6540      1.7700     78.3900
     44     -6.2980     -1.3080     13.7340      0.0100     78.3900
     45     -5.1800     -2.3660     12.2250      1.6800     78.3900
     46     -4.1460     -3.2230     11.9170      1.7700     78.3900
     47     -3.5270     -3.5740     12.7390      0.0100     78.3900
     48     -3.8550     -3.5430     10.6510      1.7700     78.3900
     49     -3.0480     -4.2270     10.3970      0.0100     78.3900
     50     -5.9530     -1.8280     11.1990      1.7700     78.3900
     51     -6.9110     -1.0900     11.4780      1.5900     78.3900
     52     -5.6530     -2.1220      9.9100      1.6800     78.3900
     53     -4.6340     -2.9490      9.6220      1.7700     78.3900
     54     -4.3760     -3.2350      8.3460      1.6800     78.3900
     55     -4.8450     -2.7700      7.6020      0.0100     78.3900
     56     -3.5870     -3.8000      8.1000      0.0100     78.3900
     57     -5.9700     -3.3240     14.3820      1.7700     78.3900
     58     -6.2420     -4.0970     13.6650      0.0100     78.3900
     59     -7.0010     -3.0230     15.3050      1.5900     78.3900
     60     -7.2360     -3.8600     15.7220      0.0100     78.3900
     61     -4.7200     -3.8230     15.0730      1.7700     78.3900
     62     -4.0380     -4.2650     14.3210      0.0100     78.3900
     63     -4.9360     -4.7430     16.1760      1.5900     78.3900
     64     -5.0400     -6.2960     15.8050      2.1000     78.3900
     65     -5.3080     -7.0590     17.0440      1.5900     78.3900
     66     -3.8600     -6.7120     15.0140      1.5900     78.3900
     67     -6.2890     -6.4010     14.8710      1.5900     78.3900
     68     -7.6270     -6.1750     15.3490      1.7700     78.3900
     69     -7.6500     -5.4200     16.1720      0.0100     78.3900
     70     -8.0320     -7.1150     15.7840      0.0100     78.3900
     71     -8.6000     -5.6970     14.2400      1.7700     78.3900
     72     -9.2370     -4.9010     14.6850      0.0100     78.3900
     73     -7.9690     -5.1600     13.0410      1.5900     78.3900
     74     -8.9060     -5.1060     11.9990      1.7700     78.3900
     75     -9.1160     -4.0200     11.8520      0.0100     78.3900
     76     -8.3320     -5.6840     10.7420      1.6800     78.3900
     77     -7.3530     -4.9340     10.1410      1.7700     78.3900
     78     -7.0560     -4.0510     10.7060      0.0100     78.3900
     79     -8.5510     -6.9750     10.2850      1.7700     78.3900
     80     -9.1800     -7.8250     10.8930      1.5900     78.3900
     81     -7.9850     -7.2860      9.0890      1.6800     78.3900
     82     -8.2600     -8.1770      8.7110      0.0100     78.3900
     83     -7.1050     -6.5340      8.3680      1.7700     78.3900
     84     -6.6680     -6.9420      7.2940      1.5900     78.3900
     85     -6.7530     -5.3100      8.9980      1.7700     78.3900
     86     -6.0120     -4.7350      8.4810      0.0100     78.3900
     87    -10.1680     -5.7920     12.5410      1.7700     78.3900
     88    -10.7170     -6.3840     11.7850      0.0100     78.3900
     89    -11.0460     -4.8350     13.1150      1.5900     78.3900
     90    -11.5220     -4.3530     12.4230      0.0100     78.3900
     91     -9.5240     -6.6950     13.6000      1.7700     78.3900
     92     -8.8130     -7.3960     13.1030      0.0100     78.3900
     93    -10.4110     -7.3320     14.5570      1.5900     78.3900
     94    -10.3550     -8.9180     14.5020      2.1000     78.3900
     95    -11.3300     -9.4510     15.4790      1.5900     78.3900
     96     -8.9630     -9.3830     14.6780      1.5900     78.3900
     97    -10.7870     -9.2200     13.0230      1.5900     78.3900
     98    -11.5340    -10.3850     12.6410      1.7700     78.3900
     99    -11.3610    -11.2420     13.3330      0.0100     78.3900
    100    -11.1840    -10.7120     11.6370      0.0100     78.3900
    101    -13.0370    -10.1110     12.5440      1.7700     78.3900
    102    -13.5770    -11.0650     12.3640      0.0100     78.3900
    103    -13.5610     -9.5590     13.7850      1.5900     78.3900
    104    -14.7430     -8.8360     13.5040      1.7700     78.3900
    105    -15.5400     -9.4610     13.9700      0.0100     78.3900
    106    -14.8050     -7.4790     14.1340      1.6800     78.3900
    107    -13.8500     -7.0530     15.0390      1.7700     78.3900
    108    -12.9890     -7.7140     15.1630      0.0100     78.3900
    109    -15.9370     -6.7160     13.9070      1.7700     78.3900
    110    -16.8550     -7.0700     13.1760      1.5900     78.3900
    111    -15.9860     -5.5250     14.5720      1.6800     78.3900
    112    -16.8500     -5.0080     14.4570      0.0100     78.3900
    113    -15.1380     -5.0950     15.5650      1.7700     78.3900
    114    -15.4010     -4.0700     16.1950      1.5900     78.3900
    115    -13.9870     -5.9280     15.7600      1.7700     78.3900
    116    -13.2650     -5.6370     16.5170      0.0100     78.3900
    117    -14.9190     -8.8400     11.9900      1.7700     78.3900
    118    -15.2790     -7.8750     11.5810      0.0100     78.3900
    119    -15.8210     -9.8820     11.6520      1.5900     78.3900
    120    -15.7960     -9.9950     10.6890      0.0100     78.3900
    121    -13.5050     -9.1110     11.4880      1.7700     78.3900
    122    -12.8670     -8.2020     11.5990      0.0100     78.3900
    123    -13.4630     -9.6870     10.1670      1.5900     78.3900
    124    -12.6850     -9.0180      8.9770      2.1000     78.3900
    125    -12.8920     -9.8740      7.7870      1.5900     78.3900
    126    -11.2910     -8.7620      9.3570      1.5900     78.3900
    127    -13.3770     -7.6180      8.7490      1.5900     78.3900
    128    -14.3830     -7.4790      7.7140      1.7700     78.3900
    129    -14.8570     -8.4540      7.4500      0.0100     78.3900
    130    -13.9120     -7.1040      6.7790      0.0100     78.3900
    131    -15.5570     -6.5560      8.1050      1.7700     78.3900
    132    -16.4920     -7.0680      7.7860      0.0100     78.3900
    133    -15.6570     -6.3570      9.5490      1.5900     78.3900
    134    -16.2240     -5.0860      9.8080      1.7700     78.3900
    135    -17.1090     -5.2660     10.4590      0.0100     78.3900
    136    -15.2890     -4.2080     10.5330      1.6800     78.3900
    137    -14.4410     -2.5330     11.6840      1.7700     78.3900
    138    -13.4540     -3.5200     11.6520      1.6800     78.3900
    139    -14.0120     -4.4960     10.9690      1.7700     78.3900
    140    -13.5410     -5.4560     10.7400      0.0100     78.3900
    141    -15.6350     -0.5240     12.1120      1.6800     78.3900
    142    -16.6230     -1.0440     11.3800      1.7700     78.3900
    143    -17.5060     -0.4040     11.2610      0.0100     78.3900
    144    -16.7000     -2.2490     10.8060      1.6800     78.3900
    145    -15.5670     -2.9450     10.9930      1.7700     78.3900
    146    -14.5100     -1.2610     12.2990      1.7700     78.3900
    147    -13.5370     -0.7460     13.0670      1.6800     78.3900
    148    -12.6940     -1.2470     13.2730      0.0100     78.3900
    149    -13.6520      0.1640     13.4700      0.0100     78.3900
    150    -16.6790     -4.5280      8.4690      1.7700     78.3900
    151    -16.6670     -3.4210      8.4230      0.0100     78.3900
    152    -17.9830     -5.0100      8.1810      1.5900     78.3900
    153    -17.9570     -5.9780      8.1320      0.0100     78.3900
    154    -15.6290     -5.1300      7.5390      1.7700     78.3900
    155    -14.6410     -4.6500      7.7400      0.0100     78.3900
    156    -16.0130     -5.1480      6.1380      1.5900     78.3900
    157    -15.0310     -4.5020      5.0850      2.1000     78.3900
    158    -13.6570     -4.9320      5.3970      1.5900     78.3900
    159    -15.5090     -4.7610      3.7070      1.5900     78.3900
    160    -15.1430     -2.9800      5.3560      1.5900     78.3900
    161    -16.1380     -2.0090      5.0310      1.7700     78.3900
    162    -16.8890     -2.0010      5.8530      0.0100     78.3900
    163    -16.6630     -2.2810      4.0940      0.0100     78.3900
    164    -15.5910     -0.5560      4.8900      1.7700     78.3900
    165    -16.3940      0.1000      4.4970      0.0100     78.3900
    166    -15.2830     -0.0690      6.2480      1.5900     78.3900
    167    -13.9900      0.5250      6.2840      1.7700     78.3900
    168    -14.0950      1.4740      6.8640      0.0100     78.3900
    169    -12.9680     -0.3390      6.9620      1.6800     78.3900
    170    -12.9540     -1.6400      6.6110      1.7700     78.3900
    171    -13.5240     -1.8590      5.7540      0.0100     78.3900
    172    -12.2140     -2.5620      7.1900      1.7700     78.3900
    173    -12.2780     -3.6130      6.9070      0.0100     78.3900
    174    -12.0140      0.1000      7.8830      1.7700     78.3900
    175    -11.9530      1.3120      8.1310      1.5900     78.3900
    176    -11.2000     -0.8170      8.4950      1.6800     78.3900
    177    -11.3100     -2.1260      8.1750      1.7700     78.3900
    178    -10.5460     -3.0470      8.7450      1.6800     78.3900
    179     -9.9050     -2.7670      9.4490      0.0100     78.3900
    180    -10.6320     -4.0090      8.4840      0.0100     78.3900
    181    -13.6640      0.8610      4.8650      1.7700     78.3900
    182    -12.5830      0.8510      4.7190      0.0100     78.3900
    183    -14.2510      2.1150      4.5670      1.5900     78.3900
    184    -15.2090      1.9910      4.5010      0.0100     78.3900
    185    -14.2990     -0.2770      4.0520      1.7700     78.3900
    186    -13.6560     -1.1810      4.0860      0.0100     78.3900
    187    -14.5970      0.0220      2.6630      1.5900     78.3900
    188    -13.4150      0.4670      1.6790      2.1000     78.3900
    189    -12.2390     -0.4200      1.8620      1.5900     78.3900
    190    -13.9810      0.5300      0.3140      1.5900     78.3900
    191    -13.1120      1.9600      2.0660      1.5900     78.3900
    192    -11.9130      2.7250      1.8470      1.7700     78.3900
    193    -12.1800      3.6650      1.3210      0.0100     78.3900
    194    -11.2000      2.1920      1.1880      0.0100     78.3900
    195    -11.1780      3.0800      3.1520      1.7700     78.3900
    196    -11.7940      3.7090      3.8250      0.0100     78.3900
    197    -10.9080      1.8510      3.8150      1.5900     78.3900
    198     -9.8230      1.9450      4.6640      1.7700     78.3900
    199    -10.2170      2.2470      5.6620      0.0100     78.3900
    200     -9.1640      0.6410      4.7450      1.6800     78.3900
    201     -8.4550      0.1160      5.7900      1.7700     78.3900
    202     -7.2260      0.3390      9.0070      1.6800     78.3900
    203     -6.8220     -0.2870      9.6760      0.0100     78.3900
    204     -7.6080      1.2050      9.3250      0.0100     78.3900
    205     -8.2280      0.7110      6.9720      1.6800     78.3900
    206     -7.5240     -0.0630      7.7900      1.7700     78.3900
    207     -7.0460     -1.2990      7.4420      1.6800     78.3900
    208     -6.5240     -1.8000      8.1400      0.0100     78.3900
    209     -7.2300     -1.9190      6.2160      1.7700     78.3900
    210     -6.7470     -3.0300      5.9760      1.5900     78.3900
    211     -8.0260     -1.1260      5.3510      1.7700     78.3900
    212     -8.4840     -1.3900      4.0680      1.6800     78.3900
    213     -9.1650     -0.3140      3.7500      1.7700     78.3900
    214     -9.7190     -0.1570      2.8180      0.0100     78.3900
    215     -8.9300      3.0100      4.0880      1.7700     78.3900
    216     -8.0250      2.5800      3.6140      0.0100     78.3900
    217     -8.5920      3.9030      5.1210      1.5900     78.3900
    218     -8.1050      4.6670      4.7660      0.0100     78.3900
    219     -9.7830      3.6660      2.9870      1.7700     78.3900
    220     -9.4470      3.2400      2.0090      0.0100     78.3900
    221     -9.8070      5.1110      2.9770      1.5900     78.3900
    222     -8.7230      5.8940      2.1510      2.1000     78.3900
    223     -8.2070      5.0290      1.0670      1.5900     78.3900
    224     -9.2960      7.1960      1.7460      1.5900     78.3900
    225     -7.5460      6.1230      3.1750      1.5900     78.3900
    226     -7.5690      7.2470      4.0860      1.7700     78.3900
    227     -8.5750      7.3550      4.5580      0.0100     78.3900
    228     -7.3520      8.1910      3.5310      0.0100     78.3900
    229     -6.5480      7.0760      5.2310      1.7700     78.3900
    230     -6.7860      7.7550      6.0800      0.0100     78.3900
    231     -6.6230      5.7250      5.7260      1.5900     78.3900
    232     -5.3470      5.2270      6.0470      1.7700     78.3900
    233     -5.3180      5.2850      7.1600      0.0100     78.3900
    234     -5.1860      3.8200      5.6240      1.6800     78.3900
    235     -5.7010      3.3870      4.4220      1.7700     78.3900
    236     -6.2580      4.1300      3.8470      0.0100     78.3900
    237     -5.5910      2.1050      4.0360      1.7700     78.3900
    238     -6.0520      1.7180      3.1300      0.0100     78.3900
    239     -4.4250      2.9560      6.3960      1.7700     78.3900
    240     -3.8660      3.3790      7.4230      1.5900     78.3900
    241     -4.3050      1.6740      6.0170      1.6800     78.3900
    242     -4.8760      1.2250      4.8900      1.7700     78.3900
    243     -4.7550     -0.0670      4.5900      1.6800     78.3900
    244     -4.1950     -0.6060      5.2260      0.0100     78.3900
    245     -5.1290     -0.4840      3.7620      0.0100     78.3900
    246     -4.2800      6.1400      5.4780      1.7700     78.3900
    247     -3.6840      5.6280      4.6900      0.0100     78.3900
    248     -3.4100      6.5850      6.5060      1.5900     78.3900
    249     -3.9150      7.1510      7.1150      0.0100     78.3900
    250     -5.0860      7.2830      4.8300      1.7700     78.3900
    251     -5.0520      7.1540      3.7240      0.0100     78.3900
    252     -4.6510      8.6110      5.1740      1.5900     78.3900
    253     -3.6910      8.6790      5.0190      0.0100     78.3900

 CREATION OF A NEW CAVITY WITH THE ORIGINAL SPHERE
 SIZES FOR THE COMPUTATION OF THE CAVITATION ENERGY.

     INPUT FOR CAVITY DEFINITION 
     ---------------------------
   ATOM               COORDINATES                RADIUS       EPS
      1      0.5870     -6.2810     10.7930      0.0100     78.3900
      2      0.3850     -5.3600     11.0440      1.5900     78.3900
      3      1.2050     -5.0460     12.1780      1.7700     78.3900
      4      2.2440     -5.3770     11.9650      0.0100     78.3900
      5      0.8320     -5.6330     13.0410      0.0100     78.3900
      6      1.2380     -3.5580     12.5830      1.7700     78.3900
      7      2.1120     -3.3480     13.2360      0.0100     78.3900
      8      1.3650     -2.7130     11.4120      1.5900     78.3900
      9      0.4100     -1.6680     11.4390      1.7700     78.3900
     10      0.9980     -0.7240     11.3900      0.0100     78.3900
     11     -0.4570     -1.7230     10.2680      1.6800     78.3900
     12     -1.1710     -0.6920      9.7260      1.7700     78.3900
     13     -2.0970      2.6530      9.6580      1.6800     78.3900
     14     -1.6600      3.0410     10.4710      0.0100     78.3900
     15     -2.6570      3.2340      9.0680      0.0100     78.3900
     16     -1.2200      0.5730     10.1840      1.6800     78.3900
     17     -1.9570      1.3630      9.3980      1.7700     78.3900
     18     -2.6200      0.9000      8.2900      1.6800     78.3900
     19     -3.1600      1.5520      7.7410      0.0100     78.3900
     20     -2.5940     -0.4070      7.8110      1.7700     78.3900
     21     -3.2020     -0.8040      6.8120      1.5900     78.3900
     22     -1.7810     -1.2290      8.6120      1.7700     78.3900
     23     -1.4410     -2.5610      8.4440      1.6800     78.3900
     24     -0.6580     -2.8110      9.4540      1.7700     78.3900
     25     -0.1780     -3.7650      9.6410      0.0100     78.3900
     26     -0.3540     -1.7100     12.7510      1.7700     78.3900
     27     -1.4530     -1.6150     12.6040      0.0100     78.3900
     28      0.0890     -0.6690     13.5950      1.5900     78.3900
     29     -0.1920     -0.8920     14.4960      0.0100     78.3900
     30     -0.0250     -3.0940     13.3190      1.7700     78.3900
     31     -0.8330     -3.7970     13.0020      0.0100     78.3900
     32      0.2070     -3.1010     14.7510      1.5900     78.3900
     33     -0.5770     -4.0340     15.7270      2.1000     78.3900
     34     -0.3050     -5.4500     15.3960      1.5900     78.3900
     35     -0.3050     -3.6050     17.1210      1.5900     78.3900
     36     -2.0440     -3.6760     15.3470      1.5900     78.3900
     37     -2.6310     -2.4290     15.7610      1.7700     78.3900
     38     -2.1790     -1.5800     15.1960      0.0100     78.3900
     39     -2.4680     -2.2290     16.8470      0.0100     78.3900
     40     -4.1310     -2.4710     15.5080      1.7700     78.3900
     41     -4.7040     -2.0890     16.3820      0.0100     78.3900
     42     -4.4070     -1.5890     14.3720      1.5900     78.3900
     43     -5.5060     -2.0890     13.6540      1.7700     78.3900
     44     -6.2980     -1.3080     13.7340      0.0100     78.3900
     45     -5.1800     -2.3660     12.2250      1.6800     78.3900
     46     -4.1460     -3.2230     11.9170      1.7700     78.3900
     47     -3.5270     -3.5740     12.7390      0.0100     78.3900
     48     -3.8550     -3.5430     10.6510      1.7700     78.3900
     49     -3.0480     -4.2270     10.3970      0.0100     78.3900
     50     -5.9530     -1.8280     11.1990      1.7700     78.3900
     51     -6.9110     -1.0900     11.4780      1.5900     78.3900
     52     -5.6530     -2.1220      9.9100      1.6800     78.3900
     53     -4.6340     -2.9490      9.6220      1.7700     78.3900
     54     -4.3760     -3.2350      8.3460      1.6800     78.3900
     55     -4.8450     -2.7700      7.6020      0.0100     78.3900
     56     -3.5870     -3.8000      8.1000      0.0100     78.3900
     57     -5.9700     -3.3240     14.3820      1.7700     78.3900
     58     -6.2420     -4.0970     13.6650      0.0100     78.3900
     59     -7.0010     -3.0230     15.3050      1.5900     78.3900
     60     -7.2360     -3.8600     15.7220      0.0100     78.3900
     61     -4.7200     -3.8230     15.0730      1.7700     78.3900
     62     -4.0380     -4.2650     14.3210      0.0100     78.3900
     63     -4.9360     -4.7430     16.1760      1.5900     78.3900
     64     -5.0400     -6.2960     15.8050      2.1000     78.3900
     65     -5.3080     -7.0590     17.0440      1.5900     78.3900
     66     -3.8600     -6.7120     15.0140      1.5900     78.3900
     67     -6.2890     -6.4010     14.8710      1.5900     78.3900
     68     -7.6270     -6.1750     15.3490      1.7700     78.3900
     69     -7.6500     -5.4200     16.1720      0.0100     78.3900
     70     -8.0320     -7.1150     15.7840      0.0100     78.3900
     71     -8.6000     -5.6970     14.2400      1.7700     78.3900
     72     -9.2370     -4.9010     14.6850      0.0100     78.3900
     73     -7.9690     -5.1600     13.0410      1.5900     78.3900
     74     -8.9060     -5.1060     11.9990      1.7700     78.3900
     75     -9.1160     -4.0200     11.8520      0.0100     78.3900
     76     -8.3320     -5.6840     10.7420      1.6800     78.3900
     77     -7.3530     -4.9340     10.1410      1.7700     78.3900
     78     -7.0560     -4.0510     10.7060      0.0100     78.3900
     79     -8.5510     -6.9750     10.2850      1.7700     78.3900
     80     -9.1800     -7.8250     10.8930      1.5900     78.3900
     81     -7.9850     -7.2860      9.0890      1.6800     78.3900
     82     -8.2600     -8.1770      8.7110      0.0100     78.3900
     83     -7.1050     -6.5340      8.3680      1.7700     78.3900
     84     -6.6680     -6.9420      7.2940      1.5900     78.3900
     85     -6.7530     -5.3100      8.9980      1.7700     78.3900
     86     -6.0120     -4.7350      8.4810      0.0100     78.3900
     87    -10.1680     -5.7920     12.5410      1.7700     78.3900
     88    -10.7170     -6.3840     11.7850      0.0100     78.3900
     89    -11.0460     -4.8350     13.1150      1.5900     78.3900
     90    -11.5220     -4.3530     12.4230      0.0100     78.3900
     91     -9.5240     -6.6950     13.6000      1.7700     78.3900
     92     -8.8130     -7.3960     13.1030      0.0100     78.3900
     93    -10.4110     -7.3320     14.5570      1.5900     78.3900
     94    -10.3550     -8.9180     14.5020      2.1000     78.3900
     95    -11.3300     -9.4510     15.4790      1.5900     78.3900
     96     -8.9630     -9.3830     14.6780      1.5900     78.3900
     97    -10.7870     -9.2200     13.0230      1.5900     78.3900
     98    -11.5340    -10.3850     12.6410      1.7700     78.3900
     99    -11.3610    -11.2420     13.3330      0.0100     78.3900
    100    -11.1840    -10.7120     11.6370      0.0100     78.3900
    101    -13.0370    -10.1110     12.5440      1.7700     78.3900
    102    -13.5770    -11.0650     12.3640      0.0100     78.3900
    103    -13.5610     -9.5590     13.7850      1.5900     78.3900
    104    -14.7430     -8.8360     13.5040      1.7700     78.3900
    105    -15.5400     -9.4610     13.9700      0.0100     78.3900
    106    -14.8050     -7.4790     14.1340      1.6800     78.3900
    107    -13.8500     -7.0530     15.0390      1.7700     78.3900
    108    -12.9890     -7.7140     15.1630      0.0100     78.3900
    109    -15.9370     -6.7160     13.9070      1.7700     78.3900
    110    -16.8550     -7.0700     13.1760      1.5900     78.3900
    111    -15.9860     -5.5250     14.5720      1.6800     78.3900
    112    -16.8500     -5.0080     14.4570      0.0100     78.3900
    113    -15.1380     -5.0950     15.5650      1.7700     78.3900
    114    -15.4010     -4.0700     16.1950      1.5900     78.3900
    115    -13.9870     -5.9280     15.7600      1.7700     78.3900
    116    -13.2650     -5.6370     16.5170      0.0100     78.3900
    117    -14.9190     -8.8400     11.9900      1.7700     78.3900
    118    -15.2790     -7.8750     11.5810      0.0100     78.3900
    119    -15.8210     -9.8820     11.6520      1.5900     78.3900
    120    -15.7960     -9.9950     10.6890      0.0100     78.3900
    121    -13.5050     -9.1110     11.4880      1.7700     78.3900
    122    -12.8670     -8.2020     11.5990      0.0100     78.3900
    123    -13.4630     -9.6870     10.1670      1.5900     78.3900
    124    -12.6850     -9.0180      8.9770      2.1000     78.3900
    125    -12.8920     -9.8740      7.7870      1.5900     78.3900
    126    -11.2910     -8.7620      9.3570      1.5900     78.3900
    127    -13.3770     -7.6180      8.7490      1.5900     78.3900
    128    -14.3830     -7.4790      7.7140      1.7700     78.3900
    129    -14.8570     -8.4540      7.4500      0.0100     78.3900
    130    -13.9120     -7.1040      6.7790      0.0100     78.3900
    131    -15.5570     -6.5560      8.1050      1.7700     78.3900
    132    -16.4920     -7.0680      7.7860      0.0100     78.3900
    133    -15.6570     -6.3570      9.5490      1.5900     78.3900
    134    -16.2240     -5.0860      9.8080      1.7700     78.3900
    135    -17.1090     -5.2660     10.4590      0.0100     78.3900
    136    -15.2890     -4.2080     10.5330      1.6800     78.3900
    137    -14.4410     -2.5330     11.6840      1.7700     78.3900
    138    -13.4540     -3.5200     11.6520      1.6800     78.3900
    139    -14.0120     -4.4960     10.9690      1.7700     78.3900
    140    -13.5410     -5.4560     10.7400      0.0100     78.3900
    141    -15.6350     -0.5240     12.1120      1.6800     78.3900
    142    -16.6230     -1.0440     11.3800      1.7700     78.3900
    143    -17.5060     -0.4040     11.2610      0.0100     78.3900
    144    -16.7000     -2.2490     10.8060      1.6800     78.3900
    145    -15.5670     -2.9450     10.9930      1.7700     78.3900
    146    -14.5100     -1.2610     12.2990      1.7700     78.3900
    147    -13.5370     -0.7460     13.0670      1.6800     78.3900
    148    -12.6940     -1.2470     13.2730      0.0100     78.3900
    149    -13.6520      0.1640     13.4700      0.0100     78.3900
    150    -16.6790     -4.5280      8.4690      1.7700     78.3900
    151    -16.6670     -3.4210      8.4230      0.0100     78.3900
    152    -17.9830     -5.0100      8.1810      1.5900     78.3900
    153    -17.9570     -5.9780      8.1320      0.0100     78.3900
    154    -15.6290     -5.1300      7.5390      1.7700     78.3900
    155    -14.6410     -4.6500      7.7400      0.0100     78.3900
    156    -16.0130     -5.1480      6.1380      1.5900     78.3900
    157    -15.0310     -4.5020      5.0850      2.1000     78.3900
    158    -13.6570     -4.9320      5.3970      1.5900     78.3900
    159    -15.5090     -4.7610      3.7070      1.5900     78.3900
    160    -15.1430     -2.9800      5.3560      1.5900     78.3900
    161    -16.1380     -2.0090      5.0310      1.7700     78.3900
    162    -16.8890     -2.0010      5.8530      0.0100     78.3900
    163    -16.6630     -2.2810      4.0940      0.0100     78.3900
    164    -15.5910     -0.5560      4.8900      1.7700     78.3900
    165    -16.3940      0.1000      4.4970      0.0100     78.3900
    166    -15.2830     -0.0690      6.2480      1.5900     78.3900
    167    -13.9900      0.5250      6.2840      1.7700     78.3900
    168    -14.0950      1.4740      6.8640      0.0100     78.3900
    169    -12.9680     -0.3390      6.9620      1.6800     78.3900
    170    -12.9540     -1.6400      6.6110      1.7700     78.3900
    171    -13.5240     -1.8590      5.7540      0.0100     78.3900
    172    -12.2140     -2.5620      7.1900      1.7700     78.3900
    173    -12.2780     -3.6130      6.9070      0.0100     78.3900
    174    -12.0140      0.1000      7.8830      1.7700     78.3900
    175    -11.9530      1.3120      8.1310      1.5900     78.3900
    176    -11.2000     -0.8170      8.4950      1.6800     78.3900
    177    -11.3100     -2.1260      8.1750      1.7700     78.3900
    178    -10.5460     -3.0470      8.7450      1.6800     78.3900
    179     -9.9050     -2.7670      9.4490      0.0100     78.3900
    180    -10.6320     -4.0090      8.4840      0.0100     78.3900
    181    -13.6640      0.8610      4.8650      1.7700     78.3900
    182    -12.5830      0.8510      4.7190      0.0100     78.3900
    183    -14.2510      2.1150      4.5670      1.5900     78.3900
    184    -15.2090      1.9910      4.5010      0.0100     78.3900
    185    -14.2990     -0.2770      4.0520      1.7700     78.3900
    186    -13.6560     -1.1810      4.0860      0.0100     78.3900
    187    -14.5970      0.0220      2.6630      1.5900     78.3900
    188    -13.4150      0.4670      1.6790      2.1000     78.3900
    189    -12.2390     -0.4200      1.8620      1.5900     78.3900
    190    -13.9810      0.5300      0.3140      1.5900     78.3900
    191    -13.1120      1.9600      2.0660      1.5900     78.3900
    192    -11.9130      2.7250      1.8470      1.7700     78.3900
    193    -12.1800      3.6650      1.3210      0.0100     78.3900
    194    -11.2000      2.1920      1.1880      0.0100     78.3900
    195    -11.1780      3.0800      3.1520      1.7700     78.3900
    196    -11.7940      3.7090      3.8250      0.0100     78.3900
    197    -10.9080      1.8510      3.8150      1.5900     78.3900
    198     -9.8230      1.9450      4.6640      1.7700     78.3900
    199    -10.2170      2.2470      5.6620      0.0100     78.3900
    200     -9.1640      0.6410      4.7450      1.6800     78.3900
    201     -8.4550      0.1160      5.7900      1.7700     78.3900
    202     -7.2260      0.3390      9.0070      1.6800     78.3900
    203     -6.8220     -0.2870      9.6760      0.0100     78.3900
    204     -7.6080      1.2050      9.3250      0.0100     78.3900
    205     -8.2280      0.7110      6.9720      1.6800     78.3900
    206     -7.5240     -0.0630      7.7900      1.7700     78.3900
    207     -7.0460     -1.2990      7.4420      1.6800     78.3900
    208     -6.5240     -1.8000      8.1400      0.0100     78.3900
    209     -7.2300     -1.9190      6.2160      1.7700     78.3900
    210     -6.7470     -3.0300      5.9760      1.5900     78.3900
    211     -8.0260     -1.1260      5.3510      1.7700     78.3900
    212     -8.4840     -1.3900      4.0680      1.6800     78.3900
    213     -9.1650     -0.3140      3.7500      1.7700     78.3900
    214     -9.7190     -0.1570      2.8180      0.0100     78.3900
    215     -8.9300      3.0100      4.0880      1.7700     78.3900
    216     -8.0250      2.5800      3.6140      0.0100     78.3900
    217     -8.5920      3.9030      5.1210      1.5900     78.3900
    218     -8.1050      4.6670      4.7660      0.0100     78.3900
[...]
   201    7   6.0   0.00    0.0    0.000000    0.716710    0.718150
   202    7   7.0  12.41   24.3   -0.074941   -0.949820   -1.036492
   203    7   1.0   0.00    0.0    0.000000    0.452309    0.523729
   204    7   1.0   0.00    0.0    0.000000    0.439567    0.433996
   205    7   7.0   3.78    7.4    0.088391   -0.737732   -0.741432
   206    7   6.0   0.00    0.0    0.000111    0.998683    0.995577
   207    7   7.0   0.01    0.0    0.000070   -0.929143   -1.015089
   208    7   1.0   0.00    0.0    0.000000    0.444226    0.506080
   209    7   6.0   0.35    0.6    0.004994    0.854338    0.866540
   210    7   8.0  11.47   25.1    0.198152   -0.727500   -0.736372
   211    7   6.0   0.83    1.5    0.009037   -0.063629   -0.057895
   212    7   7.0  13.46   26.4    0.199722   -0.616413   -0.617887
   213    7   6.0   9.78   17.3   -0.007374    0.269704    0.267142
   214    7   1.0   0.00    0.0    0.000000    0.293240    0.290118
   215    7   6.0   0.97    1.7   -0.013079    0.127870    0.084558
   216    7   1.0   0.00    0.0    0.000000    0.175598    0.212660
   217    7   8.0   7.78   17.0    0.111681   -0.826055   -0.854783
   218    7   1.0   0.00    0.0    0.000000    0.501572    0.541177
   219    7   6.0   2.90    5.1   -0.031439    0.178930    0.144542
   220    7   1.0   0.00    0.0    0.000000    0.226255    0.222942
   221    7   8.0   5.75   12.6    0.078074   -0.791805   -0.792867
   222    7  15.0  10.16   12.7    0.126394    1.599298    1.641742
   223    7   8.0  16.55   36.2    0.330978   -0.899137   -0.896035
   224    7   8.0  17.52   38.3    0.347947   -0.894336   -0.887035
   225    7   8.0   2.03    4.4    0.030000   -0.978609   -0.795463
   226    8   6.0  13.33   23.5   -0.096923    0.168703   -0.043289
   227    8   1.0   0.00    0.0    0.000000    0.229756    0.209526
   228    8   1.0   0.00    0.0    0.000000    0.235644    0.221049
   229    8   6.0   7.09   12.5   -0.058882    0.087276    0.162055
   230    8   1.0   0.00    0.0    0.000000    0.247105    0.222553
   231    8   8.0   4.41    9.6    0.044628   -0.739131   -0.744400
   232    8   6.0   3.96    7.0   -0.045967    0.419746    0.416922
   233    8   1.0   0.00    0.0    0.000000    0.250956    0.248091
   234    8   7.0   0.66    1.3    0.009103   -0.799958   -0.820794
   235    8   6.0   4.61    8.1   -0.023076    0.198844    0.187978
   236    8   1.0   0.00    0.0    0.000000    0.290438    0.300522
   237    8   6.0  10.24   18.1   -0.049860   -0.396878   -0.405233
   238    8   1.0   0.00    0.0    0.000000    0.267968    0.273675
   239    8   6.0   1.81    3.2   -0.000900    1.005104    1.057930
   240    8   8.0   9.47   20.7    0.124678   -0.799498   -0.784767
   241    8   7.0   2.19    4.3    0.036087   -0.765015   -0.786608
   242    8   6.0   0.94    1.7   -0.001414    0.686726    0.704692
   243    8   7.0  14.02   27.4   -0.108717   -0.944518   -0.987402
   244    8   1.0   0.00    0.0    0.000000    0.457942    0.490659
   245    8   1.0   0.00    0.0    0.000000    0.448294    0.445394
   246    8   6.0   7.57   13.4   -0.072681    0.106609    0.107986
   247    8   1.0   0.00    0.0    0.000000    0.250317    0.249725
   248    8   8.0  20.02   43.8    0.028268   -0.827303   -0.828240
   249    8   1.0   0.00    0.0    0.000000    0.499400    0.498887
   250    8   6.0   7.02   12.4   -0.053434    0.149424    0.127265
   251    8   1.0   0.00    0.0    0.000000    0.208524    0.217411
   252    8   8.0  21.36   46.7    0.025828   -0.839122   -0.842147
   253    8   1.0   0.00    0.0    0.000000    0.501009    0.501191

 Done with FMO properties.
 CPU     0: STEP CPU TIME=     0.00 TOTAL CPU TIME=      11442.5 (    190.7 MIN)
 TOTAL WALL CLOCK TIME=      24368.1 SECONDS, CPU UTILIZATION IS    46.96%
 CPU     0: STEP CPU TIME=     0.00 TOTAL CPU TIME=      11442.5 (    190.7 MIN)
 TOTAL WALL CLOCK TIME=      24368.1 SECONDS, CPU UTILIZATION IS    46.96%

 Total timing statistics in pairs (CPU,wall) for each rank, sec

    Rank   total     SCF    corr     DFT    CPHF     EFP    solv     ESP    geom
 -------------------------------------------------------------------------------
       1   11442.5   3355.2   4494.5      0.0    0.0   0.0   90.3  3329.5    0.0
       1   24368.2   7126.3   9911.1      0.0    0.0   0.0  262.7  6655.3    0.0
       2   11180.4   3320.5   4299.4      0.0    0.0   0.0   91.3  3298.0    0.0
       2   24368.2   7121.7   9915.8      0.0    0.0   0.0  262.7  6654.8    0.0
       3   11245.7   3313.8   4331.3      0.0    0.0   0.0   91.4  3337.6    0.0
       3   24368.2   7121.3   9915.8      0.0    0.0   0.0  262.8  6654.9    0.0
       4   11264.9   3307.4   4373.9      0.0    0.0   0.0   90.7  3324.5    0.0
       4   24368.2   7121.7   9915.8      0.0    0.0   0.0  262.1  6654.9    0.0
       5   11042.0   3335.4   4147.2      0.0    0.0   0.0   90.4  3294.7    0.0
       5   24368.2   7121.5   9915.7      0.0    0.0   0.0  262.7  6655.1    0.0
       6   11136.5   3321.7   4243.2      0.0    0.0   0.0   90.8  3310.1    0.0
       6   24368.2   7121.8   9915.8      0.0    0.0   0.0  262.1  6655.0    0.0
       7   11227.5   3322.9   4311.4      0.0    0.0   0.0   90.9  3331.9    0.0
       7   24368.2   7122.0   9915.7      0.0    0.0   0.0  262.1  6655.0    0.0
       8   11129.8   3303.9   4254.2      0.0    0.0   0.0   90.2  3315.5    0.0
       8   24368.2   7122.2   9915.7      0.0    0.0   0.0  261.5  6654.9    0.0
       9   11118.9   3323.2   4233.3      0.0    0.0   0.0   89.4  3299.6    0.0
       9   24368.2   7122.6   9915.6      0.0    0.0   0.0  262.0  6654.7    0.0
      10   11103.1   3305.4   4257.0      0.0    0.0   0.0   90.0  3275.8    0.0
      10   24368.2   7122.5   9915.6      0.0    0.0   0.0  261.9  6654.7    0.0
      11   11092.5   3303.9   4250.6      0.0    0.0   0.0   88.9  3278.8    0.0
      11   24368.2   7123.2   9915.6      0.0    0.0   0.0  261.5  6654.5    0.0
      12   11169.7   3318.5   4326.6      0.0    0.0   0.0   89.4  3267.3    0.0
      12   24368.2   7123.3   9915.6      0.0    0.0   0.0  261.1  6654.5    0.0
      13   11102.8   3326.1   4223.2      0.0    0.0   0.0   89.4  3296.9    0.0
      13   24368.2   7123.0   9915.7      0.0    0.0   0.0  261.8  6654.6    0.0
      14   11144.4   3319.2   4268.9      0.0    0.0   0.0   89.6  3298.4    0.0
      14   24368.2   7123.1   9915.6      0.0    0.0   0.0  261.3  6654.4    0.0
      15   11260.2   3335.8   4363.6      0.0    0.0   0.0   89.4  3298.1    0.0
      15   24368.2   7123.5   9915.6      0.0    0.0   0.0  261.3  6654.3    0.0
      16   11325.6   3315.8   4463.3      0.0    0.0   0.0   89.3  3287.6    0.0
      16   24368.2   7123.5   9915.6      0.0    0.0   0.0  260.8  6654.2    0.0
averaged   11186.7   3320.6   4302.6      0.0    0.0   0.0   90.1  3302.8    0.0
averaged   24368.2   7122.7   9915.4      0.0    0.0   0.0  261.9  6654.7    0.0

  FMO  timing statistics in pairs (CPU,wall) for each rank, sec

    Rank  FMOini FMOscf1  FMOdm1 FMOsyn1 FMOscf2  FMOes2 FMOsyn2 FMOscf3 FMOsyn3
 -------------------------------------------------------------------------------
       1    1.6    4506.1    0.2    0.0    6819.5     115.1    0.0    0.0    0.0
       1    3.7    9388.7    0.4    0.0   14739.1     236.0    0.0    0.0    0.0
       2    1.1    4482.8    0.1    0.0    6580.6     115.8    0.0    0.0    0.0
       2    3.7    9388.7    0.4    0.0   14739.1     235.9    0.0    0.0    0.0
       3    1.3    4495.3    0.1    0.0    6633.2     115.7    0.0    0.0    0.0
       3    3.7    9388.7    0.4    0.0   14738.8     236.2    0.0    0.0    0.0
       4    1.1    4483.1    0.0    0.0    6666.7     113.9    0.0    0.0    0.0
       4    3.7    9388.7    0.4    0.0   14738.9     236.1    0.0    0.0    0.0
       5    1.4    4478.5    0.2    0.0    6444.0     118.0    0.0    0.0    0.0
       5    3.7    9388.7    0.4    0.0   14738.9     236.1    0.0    0.0    0.0
       6    1.2    4500.6    0.0    0.0    6518.6     116.0    0.0    0.0    0.0
       6    3.7    9388.7    0.4    0.0   14739.2     235.9    0.0    0.0    0.0
       7    1.3    4500.2    0.1    0.0    6611.1     114.8    0.0    0.0    0.0
       7    3.7    9388.7    0.4    0.0   14739.0     236.0    0.0    0.0    0.0
       8    1.1    4492.8    0.1    0.0    6523.7     112.2    0.0    0.0    0.0
       8    3.7    9388.7    0.4    0.0   14739.6     235.4    0.0    0.0    0.0
       9    1.3    4499.6    0.2    0.0    6499.6     118.2    0.0    0.0    0.0
       9    3.7    9388.7    0.4    0.0   14738.8     236.2    0.0    0.0    0.0
      10    1.1    4462.9    0.1    0.0    6517.9     121.1    0.0    0.0    0.0
      10    3.7    9388.7    0.4    0.0   14739.6     235.4    0.0    0.0    0.0
      11    1.1    4465.3    0.1    0.0    6509.6     116.4    0.0    0.0    0.0
      11    3.7    9388.7    0.4    0.0   14738.7     236.3    0.0    0.0    0.0
      12    1.0    4477.8    0.0    0.0    6576.3     114.6    0.0    0.0    0.0
      12    3.7    9388.7    0.4    0.0   14739.2     235.9    0.0    0.0    0.0
      13    1.2    4503.1    0.1    0.0    6485.9     112.5    0.0    0.0    0.0
      13    3.7    9388.7    0.4    0.0   14738.8     236.2    0.0    0.0    0.0
      14    1.0    4482.0    0.1    0.0    6545.7     115.7    0.0    0.0    0.0
      14    3.7    9388.7    0.4    0.0   14739.3     235.8    0.0    0.0    0.0
      15    1.2    4464.9    0.1    0.0    6674.4     119.5    0.0    0.0    0.0
      15    3.7    9388.7    0.4    0.0   14739.2     235.8    0.0    0.0    0.0
      16    1.1    4501.8    0.1    0.0    6706.0     116.6    0.0    0.0    0.0
      16    3.7    9388.7    0.4    0.0   14739.4     235.6    0.0    0.0    0.0
averaged    1.2    4487.3    0.1    0.0    6582.0     116.0    0.0    0.0    0.0
averaged    3.7    9388.7    0.4    0.0   14739.1     235.9    0.0    0.0    0.0
             62780168  WORDS OF DYNAMIC MEMORY USED
 EXECUTION OF GAMESS TERMINATED NORMALLY Sat Dec  7 06:52:32 2019
 DDI: 263640 bytes (0.3 MB / 0 MWords) used by master data server.

 ----------------------------------------
 CPU timing information for all processes
 ========================================
 0: 11163.540 + 279.18 = 11442.559
 1: 10928.802 + 251.610 = 11180.412
 2: 10990.419 + 255.289 = 11245.709
 3: 11012.202 + 252.678 = 11264.880
 4: 10792.64 + 249.986 = 11042.51
 5: 10905.406 + 231.132 = 11136.539
 6: 10972.824 + 254.746 = 11227.570
 7: 10891.787 + 238.19 = 11129.806
 8: 10865.963 + 253.02 = 11118.966
 9: 10863.57 + 240.50 = 11103.107
 10: 10845.371 + 247.154 = 11092.526
 11: 10930.804 + 238.931 = 11169.735
 12: 10852.395 + 250.500 = 11102.895
 13: 10908.816 + 235.621 = 11144.438
 14: 11002.167 + 258.51 = 11260.218
 15: 11083.368 + 242.228 = 11325.596
 ----------------------------------------
 ddikick.x: exited gracefully.
unset echo
----- accounting info -----
Files used on the master node gollum060.lsa.umich.edu were:
-rw-r--r-- 1 hazwong frank    13458 Dec  7 00:06 /scratch/hazwong/824120/4A4T_6/usrc/4A4T_6_fmo_input.F05
-rw-r--r-- 1 hazwong frank      634 Dec  7 06:52 /scratch/hazwong/824120/4A4T_6/usrc/4A4T_6_fmo_input.F06.001
-rw-r--r-- 1 hazwong frank      634 Dec  7 06:52 /scratch/hazwong/824120/4A4T_6/usrc/4A4T_6_fmo_input.F06.002
-rw-r--r-- 1 hazwong frank      634 Dec  7 06:52 /scratch/hazwong/824120/4A4T_6/usrc/4A4T_6_fmo_input.F06.003
-rw-r--r-- 1 hazwong frank      634 Dec  7 06:52 /scratch/hazwong/824120/4A4T_6/usrc/4A4T_6_fmo_input.F06.004
-rw-r--r-- 1 hazwong frank      634 Dec  7 06:52 /scratch/hazwong/824120/4A4T_6/usrc/4A4T_6_fmo_input.F06.005
-rw-r--r-- 1 hazwong frank      634 Dec  7 06:52 /scratch/hazwong/824120/4A4T_6/usrc/4A4T_6_fmo_input.F06.006
-rw-r--r-- 1 hazwong frank      634 Dec  7 06:52 /scratch/hazwong/824120/4A4T_6/usrc/4A4T_6_fmo_input.F06.007
-rw-r--r-- 1 hazwong frank      634 Dec  7 06:52 /scratch/hazwong/824120/4A4T_6/usrc/4A4T_6_fmo_input.F06.008
-rw-r--r-- 1 hazwong frank      634 Dec  7 06:52 /scratch/hazwong/824120/4A4T_6/usrc/4A4T_6_fmo_input.F06.009
-rw-r--r-- 1 hazwong frank      634 Dec  7 06:52 /scratch/hazwong/824120/4A4T_6/usrc/4A4T_6_fmo_input.F06.010
-rw-r--r-- 1 hazwong frank      634 Dec  7 06:52 /scratch/hazwong/824120/4A4T_6/usrc/4A4T_6_fmo_input.F06.011
-rw-r--r-- 1 hazwong frank      634 Dec  7 06:52 /scratch/hazwong/824120/4A4T_6/usrc/4A4T_6_fmo_input.F06.012
-rw-r--r-- 1 hazwong frank      634 Dec  7 06:52 /scratch/hazwong/824120/4A4T_6/usrc/4A4T_6_fmo_input.F06.013
-rw-r--r-- 1 hazwong frank      634 Dec  7 06:52 /scratch/hazwong/824120/4A4T_6/usrc/4A4T_6_fmo_input.F06.014
-rw-r--r-- 1 hazwong frank      634 Dec  7 06:52 /scratch/hazwong/824120/4A4T_6/usrc/4A4T_6_fmo_input.F06.015
-rw-r--r-- 1 hazwong frank     6172 Dec  7 06:52 /scratch/hazwong/824120/4A4T_6/usrc/4A4T_6_fmo_input.F07
-rw-r--r-- 1 hazwong frank        0 Dec  7 00:06 /scratch/hazwong/824120/4A4T_6/usrc/4A4T_6_fmo_input.F07.001
-rw-r--r-- 1 hazwong frank        0 Dec  7 00:06 /scratch/hazwong/824120/4A4T_6/usrc/4A4T_6_fmo_input.F07.002
-rw-r--r-- 1 hazwong frank        0 Dec  7 00:06 /scratch/hazwong/824120/4A4T_6/usrc/4A4T_6_fmo_input.F07.003
-rw-r--r-- 1 hazwong frank        0 Dec  7 00:06 /scratch/hazwong/824120/4A4T_6/usrc/4A4T_6_fmo_input.F07.004
-rw-r--r-- 1 hazwong frank        0 Dec  7 00:06 /scratch/hazwong/824120/4A4T_6/usrc/4A4T_6_fmo_input.F07.005
-rw-r--r-- 1 hazwong frank        0 Dec  7 00:06 /scratch/hazwong/824120/4A4T_6/usrc/4A4T_6_fmo_input.F07.006
-rw-r--r-- 1 hazwong frank        0 Dec  7 00:06 /scratch/hazwong/824120/4A4T_6/usrc/4A4T_6_fmo_input.F07.007
-rw-r--r-- 1 hazwong frank        0 Dec  7 00:06 /scratch/hazwong/824120/4A4T_6/usrc/4A4T_6_fmo_input.F07.008
-rw-r--r-- 1 hazwong frank        0 Dec  7 00:06 /scratch/hazwong/824120/4A4T_6/usrc/4A4T_6_fmo_input.F07.009
-rw-r--r-- 1 hazwong frank        0 Dec  7 00:06 /scratch/hazwong/824120/4A4T_6/usrc/4A4T_6_fmo_input.F07.010
-rw-r--r-- 1 hazwong frank        0 Dec  7 00:06 /scratch/hazwong/824120/4A4T_6/usrc/4A4T_6_fmo_input.F07.011
-rw-r--r-- 1 hazwong frank        0 Dec  7 00:06 /scratch/hazwong/824120/4A4T_6/usrc/4A4T_6_fmo_input.F07.012
-rw-r--r-- 1 hazwong frank        0 Dec  7 00:06 /scratch/hazwong/824120/4A4T_6/usrc/4A4T_6_fmo_input.F07.013
-rw-r--r-- 1 hazwong frank        0 Dec  7 00:06 /scratch/hazwong/824120/4A4T_6/usrc/4A4T_6_fmo_input.F07.014
-rw-r--r-- 1 hazwong frank        0 Dec  7 00:06 /scratch/hazwong/824120/4A4T_6/usrc/4A4T_6_fmo_input.F07.015
-rw-r--r-- 1 hazwong frank    65440 Dec  7 06:52 /scratch/hazwong/824120/4A4T_6/usrc/4A4T_6_fmo_input.F10.000
-rw-r--r-- 1 hazwong frank        0 Dec  7 00:06 /scratch/hazwong/824120/4A4T_6/usrc/4A4T_6_fmo_input.F26.000
-rw-r--r-- 1 hazwong frank        0 Dec  7 00:06 /scratch/hazwong/824120/4A4T_6/usrc/4A4T_6_fmo_input.F26.001
-rw-r--r-- 1 hazwong frank        0 Dec  7 00:06 /scratch/hazwong/824120/4A4T_6/usrc/4A4T_6_fmo_input.F26.002
-rw-r--r-- 1 hazwong frank        0 Dec  7 00:06 /scratch/hazwong/824120/4A4T_6/usrc/4A4T_6_fmo_input.F26.003
-rw-r--r-- 1 hazwong frank        0 Dec  7 00:06 /scratch/hazwong/824120/4A4T_6/usrc/4A4T_6_fmo_input.F26.004
-rw-r--r-- 1 hazwong frank        0 Dec  7 00:06 /scratch/hazwong/824120/4A4T_6/usrc/4A4T_6_fmo_input.F26.005
-rw-r--r-- 1 hazwong frank        0 Dec  7 00:06 /scratch/hazwong/824120/4A4T_6/usrc/4A4T_6_fmo_input.F26.006
-rw-r--r-- 1 hazwong frank        0 Dec  7 00:06 /scratch/hazwong/824120/4A4T_6/usrc/4A4T_6_fmo_input.F26.007
-rw-r--r-- 1 hazwong frank        0 Dec  7 00:06 /scratch/hazwong/824120/4A4T_6/usrc/4A4T_6_fmo_input.F26.008
-rw-r--r-- 1 hazwong frank        0 Dec  7 00:06 /scratch/hazwong/824120/4A4T_6/usrc/4A4T_6_fmo_input.F26.009
-rw-r--r-- 1 hazwong frank        0 Dec  7 00:06 /scratch/hazwong/824120/4A4T_6/usrc/4A4T_6_fmo_input.F26.010
-rw-r--r-- 1 hazwong frank        0 Dec  7 00:06 /scratch/hazwong/824120/4A4T_6/usrc/4A4T_6_fmo_input.F26.011
-rw-r--r-- 1 hazwong frank        0 Dec  7 00:06 /scratch/hazwong/824120/4A4T_6/usrc/4A4T_6_fmo_input.F26.012
-rw-r--r-- 1 hazwong frank        0 Dec  7 00:06 /scratch/hazwong/824120/4A4T_6/usrc/4A4T_6_fmo_input.F26.013
-rw-r--r-- 1 hazwong frank        0 Dec  7 00:06 /scratch/hazwong/824120/4A4T_6/usrc/4A4T_6_fmo_input.F26.014
-rw-r--r-- 1 hazwong frank        0 Dec  7 00:06 /scratch/hazwong/824120/4A4T_6/usrc/4A4T_6_fmo_input.F26.015
-rw-r--r-- 1 hazwong frank        0 Dec  7 00:06 /scratch/hazwong/824120/4A4T_6/usrc/4A4T_6_fmo_input.F27.000
-rw-r--r-- 1 hazwong frank        0 Dec  7 00:06 /scratch/hazwong/824120/4A4T_6/usrc/4A4T_6_fmo_input.F27.001
-rw-r--r-- 1 hazwong frank        0 Dec  7 00:06 /scratch/hazwong/824120/4A4T_6/usrc/4A4T_6_fmo_input.F27.002
-rw-r--r-- 1 hazwong frank        0 Dec  7 00:06 /scratch/hazwong/824120/4A4T_6/usrc/4A4T_6_fmo_input.F27.003
-rw-r--r-- 1 hazwong frank        0 Dec  7 00:06 /scratch/hazwong/824120/4A4T_6/usrc/4A4T_6_fmo_input.F27.004
-rw-r--r-- 1 hazwong frank        0 Dec  7 00:06 /scratch/hazwong/824120/4A4T_6/usrc/4A4T_6_fmo_input.F27.005
-rw-r--r-- 1 hazwong frank        0 Dec  7 00:06 /scratch/hazwong/824120/4A4T_6/usrc/4A4T_6_fmo_input.F27.006
-rw-r--r-- 1 hazwong frank        0 Dec  7 00:06 /scratch/hazwong/824120/4A4T_6/usrc/4A4T_6_fmo_input.F27.007
-rw-r--r-- 1 hazwong frank        0 Dec  7 00:06 /scratch/hazwong/824120/4A4T_6/usrc/4A4T_6_fmo_input.F27.008
-rw-r--r-- 1 hazwong frank        0 Dec  7 00:06 /scratch/hazwong/824120/4A4T_6/usrc/4A4T_6_fmo_input.F27.009
-rw-r--r-- 1 hazwong frank        0 Dec  7 00:06 /scratch/hazwong/824120/4A4T_6/usrc/4A4T_6_fmo_input.F27.010
-rw-r--r-- 1 hazwong frank        0 Dec  7 00:06 /scratch/hazwong/824120/4A4T_6/usrc/4A4T_6_fmo_input.F27.011
-rw-r--r-- 1 hazwong frank        0 Dec  7 00:06 /scratch/hazwong/824120/4A4T_6/usrc/4A4T_6_fmo_input.F27.012
-rw-r--r-- 1 hazwong frank        0 Dec  7 00:06 /scratch/hazwong/824120/4A4T_6/usrc/4A4T_6_fmo_input.F27.013
-rw-r--r-- 1 hazwong frank        0 Dec  7 00:06 /scratch/hazwong/824120/4A4T_6/usrc/4A4T_6_fmo_input.F27.014
-rw-r--r-- 1 hazwong frank        0 Dec  7 00:06 /scratch/hazwong/824120/4A4T_6/usrc/4A4T_6_fmo_input.F27.015
-rw-r--r-- 1 hazwong frank 15876096 Dec  7 02:42 /scratch/hazwong/824120/4A4T_6/usrc/4A4T_6_fmo_input.F40.000
-rw-r--r-- 1 hazwong frank 15876096 Dec  7 02:42 /scratch/hazwong/824120/4A4T_6/usrc/4A4T_6_fmo_input.F40.001
-rw-r--r-- 1 hazwong frank 15876096 Dec  7 02:42 /scratch/hazwong/824120/4A4T_6/usrc/4A4T_6_fmo_input.F40.002
-rw-r--r-- 1 hazwong frank 15876096 Dec  7 02:42 /scratch/hazwong/824120/4A4T_6/usrc/4A4T_6_fmo_input.F40.003
-rw-r--r-- 1 hazwong frank 15876096 Dec  7 02:42 /scratch/hazwong/824120/4A4T_6/usrc/4A4T_6_fmo_input.F40.004
-rw-r--r-- 1 hazwong frank 15876096 Dec  7 02:42 /scratch/hazwong/824120/4A4T_6/usrc/4A4T_6_fmo_input.F40.005
-rw-r--r-- 1 hazwong frank 15876096 Dec  7 02:42 /scratch/hazwong/824120/4A4T_6/usrc/4A4T_6_fmo_input.F40.006
-rw-r--r-- 1 hazwong frank 15876096 Dec  7 02:42 /scratch/hazwong/824120/4A4T_6/usrc/4A4T_6_fmo_input.F40.007
-rw-r--r-- 1 hazwong frank 15876096 Dec  7 02:42 /scratch/hazwong/824120/4A4T_6/usrc/4A4T_6_fmo_input.F40.008
-rw-r--r-- 1 hazwong frank 15876096 Dec  7 02:42 /scratch/hazwong/824120/4A4T_6/usrc/4A4T_6_fmo_input.F40.009
-rw-r--r-- 1 hazwong frank 15876096 Dec  7 02:42 /scratch/hazwong/824120/4A4T_6/usrc/4A4T_6_fmo_input.F40.010
-rw-r--r-- 1 hazwong frank 15876096 Dec  7 02:42 /scratch/hazwong/824120/4A4T_6/usrc/4A4T_6_fmo_input.F40.011
-rw-r--r-- 1 hazwong frank 15876096 Dec  7 02:42 /scratch/hazwong/824120/4A4T_6/usrc/4A4T_6_fmo_input.F40.012
-rw-r--r-- 1 hazwong frank 15876096 Dec  7 02:42 /scratch/hazwong/824120/4A4T_6/usrc/4A4T_6_fmo_input.F40.013
-rw-r--r-- 1 hazwong frank 15876096 Dec  7 02:42 /scratch/hazwong/824120/4A4T_6/usrc/4A4T_6_fmo_input.F40.014
-rw-r--r-- 1 hazwong frank 15876096 Dec  7 02:42 /scratch/hazwong/824120/4A4T_6/usrc/4A4T_6_fmo_input.F40.015
ls: No match.
ls: No match.
ls: No match.
Sat Dec  7 06:52:56 EST 2019
0.191u 0.076s 6:46:32.62 0.0%	0+0k 1320+120io 22pf+0w
