‘28SR_6_fmo_input.inp’ -> ‘/scratch/hazwong/824322/./28SR_6_fmo_input.inp’
‘rungms’ -> ‘/scratch/hazwong/824322/./rungms’
‘gms-files.csh’ -> ‘/scratch/hazwong/824322/./gms-files.csh’
----- GAMESS execution script 'rungms' -----
This job is running on host gollum085.lsa.umich.edu
under operating system Linux at Sat Dec 7 08:28:51 EST 2019
Available scratch disk space (Kbyte units) at beginning of the job is
Filesystem     1K-blocks   Used Available Use% Mounted on
/dev/sda4      426933580 368352 426565228   1% /scratch
GAMESS temporary binary files will be written to /scratch/hazwong/824322/28SR_6/usrc
GAMESS supplementary output files will be written to /scratch/hazwong/824322/28SR_6/src
Copying input file 28SR_6_fmo_input.inp to your run's scratch directory...
cp 28SR_6_fmo_input.inp /scratch/hazwong/824322/28SR_6/usrc/28SR_6_fmo_input.F05
unset echo
This is a GDDI run, keeping various output files on local disks
setenv OUTPUT /scratch/hazwong/824322/28SR_6/usrc/28SR_6_fmo_input.F06
setenv PUNCH /scratch/hazwong/824322/28SR_6/usrc/28SR_6_fmo_input.F07
unset echo
 
Assuming a single but multicore node.
 
/export/apps/CentOS7/gamess/src/build//ddikick.x /export/apps/CentOS7/gamess/src/build//gamess.R3.x 28SR_6_fmo_input -ddi 1 16 gollum085.lsa.umich.edu:cpus=16 -scr /scratch/hazwong/824322/28SR_6/usrc

 Distributed Data Interface kickoff program.
 Initiating 16 compute processes on 1 nodes to run the following command:
 /export/apps/CentOS7/gamess/src/build//gamess.R3.x 28SR_6_fmo_input 

          ******************************************************
          *         GAMESS VERSION = 30 SEP 2018 (R3)         *
          *             FROM IOWA STATE UNIVERSITY             *
          * M.W.SCHMIDT, K.K.BALDRIDGE, J.A.BOATZ, S.T.ELBERT, *
          *   M.S.GORDON, J.H.JENSEN, S.KOSEKI, N.MATSUNAGA,   *
          *          K.A.NGUYEN, S.J.SU, T.L.WINDUS,           *
          *       TOGETHER WITH M.DUPUIS, J.A.MONTGOMERY       *
          *         J.COMPUT.CHEM.  14, 1347-1363(1993)        *
          **************** 64 BIT LINUX VERSION ****************

  SINCE 1993, STUDENTS AND POSTDOCS WORKING AT IOWA STATE UNIVERSITY
  AND ALSO IN THEIR VARIOUS JOBS AFTER LEAVING ISU HAVE MADE IMPORTANT
  CONTRIBUTIONS TO THE CODE:
     IVANA ADAMOVIC, CHRISTINE AIKENS, YURI ALEXEEV, POOJA ARORA,
     ANDREY ASADCHEV, ROB BELL, PRADIPTA BANDYOPADHYAY, JONATHAN BENTZ,
     BRETT BODE, KURT BRORSEN, CALEB CARLIN, GALINA CHABAN, WEI CHEN,
     CHEOL HO CHOI, PAUL DAY, ALBERT DEFUSCO, NUWAN DESILVA, TIM DUDLEY,
     DMITRI FEDOROV, ALEX FINDLATER, GRAHAM FLETCHER, MARK FREITAG,
     KURT GLAESEMANN, ANASTASIA GUNINA,
     DAN KEMP, GRANT MERRILL, NORIYUKI MINEZAWA, JONATHAN MULLIN,
     TAKESHI NAGATA, SEAN NEDD, HEATHER NETZLOFF, BOSILJKA NJEGIC, RYAN OLSON,
     MIKE PAK, BUU PHAM,
     SPENCER PRUITT, LUKE ROSKOP, JIM SHOEMAKER, LYUDMILA SLIPCHENKO,
     TONY SMITH, SAROM SOK LEANG, JIE SONG, TETSUYA TAKETSUGU, SIMON WEBB,
     PENG XU, SOOHAENG YOO, FEDERICO ZAHARIEV

  ADDITIONAL CODE HAS BEEN PROVIDED BY COLLABORATORS IN OTHER GROUPS:
     IOWA STATE UNIVERSITY:
          JOE IVANIC, AARON WEST, LAIMUTIS BYTAUTAS, KLAUS RUEDENBERG
     UNIVERSITY OF TOKYO: KIMIHIKO HIRAO, TAKAHITO NAKAJIMA,
          TAKAO TSUNEDA, MUNEAKI KAMIYA, SUSUMU YANAGISAWA,
          KIYOSHI YAGI, MAHITO CHIBA, SEIKEN TOKURA, NAOAKI KAWAKAMI
     UNIVERSITY OF AARHUS: FRANK JENSEN
     UNIVERSITY OF IOWA: VISVALDAS KAIRYS, HUI LI
     NATIONAL INST. OF STANDARDS AND TECHNOLOGY: WALT STEVENS, DAVID GARMER
     UNIVERSITY OF PISA: BENEDETTA MENNUCCI, JACOPO TOMASI
     UNIVERSITY OF MEMPHIS: HENRY KURTZ, PRAKASHAN KORAMBATH
     UNIVERSITY OF ALBERTA: TOBY ZENG, MARIUSZ KLOBUKOWSKI
     UNIVERSITY OF NEW ENGLAND: MARK SPACKMAN
     MIE UNIVERSITY: HIROAKI UMEDA
     NAT. INST. OF ADVANCED INDUSTRIAL SCIENCE AND TECHNOLOGY: KAZUO KITAURA
     MICHIGAN STATE UNIVERSITY:
          KAROL KOWALSKI, MARTA WLOCH, JEFFREY GOUR, JESSE LUTZ,
          WEI LI, JUN SHEN, J. EMILIANO DEUSTUA, PIOTR PIECUCH
     UNIVERSITY OF MINNESOTA:
          YINAN SHU
     UNIVERSITY OF SILESIA: MONIKA MUSIAL, STANISLAW KUCHARSKI
     FACULTES UNIVERSITAIRES NOTRE-DAME DE LA PAIX:
          OLIVIER QUINET, BENOIT CHAMPAGNE
     UNIVERSITY OF CALIFORNIA - SANTA BARBARA: BERNARD KIRTMAN
     INSTITUTE FOR MOLECULAR SCIENCE:
          KAZUYA ISHIMURA, MICHIO KATOUDA, AND SHIGERU NAGASE
     UNIVERSITY OF NOTRE DAME: ANNA POMOGAEVA, DAN CHIPMAN
     KYUSHU UNIVERSITY:
          HARUYUKI NAKANO,
          FENG LONG GU, JACEK KORCHOWIEC, MARCIN MAKOWSKI, AND YURIKO AOKI,
          HIROTOSHI MORI AND EISAKU MIYOSHI
     PENNSYLVANIA STATE UNIVERSITY:
          TZVETELIN IORDANOV, CHET SWALINA, JONATHAN SKONE,
          SHARON HAMMES-SCHIFFER
     WASEDA UNIVERSITY:
          MASATO KOBAYASHI, TOMOKO AKAMA, TSUGUKI TOUMA,
          TAKESHI YOSHIKAWA, YASUHIRO IKABATA, JUNJI SEINO,
          YUYA NAKAJIMA, HIROMI NAKAI
     NANJING UNIVERSITY: SHUHUA LI
     UNIVERSITY OF NEBRASKA:
          PEIFENG SU, DEJUN SI, NANDUN THELLAMUREGE, YALI WANG, HUI LI
     UNIVERSITY OF ZURICH: ROBERTO PEVERATI, KIM BALDRIDGE
     N. COPERNICUS UNIVERSITY AND JACKSON STATE UNIVERSITY:
          MARIA BARYSZ
     UNIVERSITY OF COPENHAGEN: Jimmy Kromann, CASPER STEINMANN
     TOKYO INSTITUTE OF TECHNOLOGY: HIROYA NAKATA
     NAGOYA UNIVERSITY: YOSHIO NISHIMOTO, STEPHAN IRLE
     MOSCOW STATE UNIVERSITY: VLADIMIR MIRONOV


 PARALLEL VERSION RUNNING ON       16 PROCESSORS IN        1 NODES.

 EXECUTION OF GAMESS BEGUN Sat Dec  7 08:28:51 2019

            ECHO OF THE FIRST FEW INPUT CARDS -
 INPUT CARD>!*** FMO 5.3 (Gamess) INPUT generated by Facio 22.1.1.32 ***                    
 INPUT CARD> $CONTRL RUNTYP=ENERGY NPRINT=-5 ISPHER=1 MAXIT=200 $END                        
 INPUT CARD> $SYSTEM MWORDS=63 MEMDDI=63 $END                                               
 INPUT CARD> $GDDI NGROUP=1 $END                                                            
 INPUT CARD> $SCF DIRSCF=.TRUE. NPUNCH=0 $END                                               
 INPUT CARD>!*** NumCPU : 2  MemPerNode : 512MB                                             
 INPUT CARD> $PCM SOLVNT=WATER IEF=-10 ICOMP=2 ICAV=1 IDISP=1 IFMO=-1 $END                  
 INPUT CARD> $PCMCAV RADII=SUAHF $END                                                       
 INPUT CARD> $TESCAV NTSALL=60 $END                                                         
 INPUT CARD> $FMOPRP                                                                        
 INPUT CARD>    NAODIR=200                                                                  
 INPUT CARD>    NGRFMO(1)=1, 1, 0, 0, 0,   0, 0, 0, 0, 0                                    
 INPUT CARD>    IPIEDA=1                                                                    
 INPUT CARD>    NPRINT=9                                                                    
 INPUT CARD> $END                                                                           
 INPUT CARD> $FMO                                                                           
 INPUT CARD>      SCFTYP(1)=RHF                                                             
 INPUT CARD>      MODGRD=10                                                                 
 INPUT CARD>      MODMUL=0                                                                  
 INPUT CARD>      MAXCAO=5                                                                  
 INPUT CARD>      MAXBND=18                                                                 
 INPUT CARD>      NLAYER=1                                                                  
 INPUT CARD>      MPLEVL(1)=2                                                               
 INPUT CARD>      NFRAG=16                                                                  
 INPUT CARD>      ICHARG(1)=-1, -1, -1, -1, -1, -1, -1, 0, -1, -1, -1, -1, -1, -1,          
 INPUT CARD>-1, 0                                                                           
 INPUT CARD>      FRGNAM(1)=F1, F2, F3, F4, F5, F6, F7, F8, F9, F10, F11, F12, F13,         
 INPUT CARD>F14, F15, F16                                                                   
 INPUT CARD>      indat(1)=0                                                                
 INPUT CARD>               1   -36   0                                                      
 INPUT CARD>               37   -66   0                                                     
 INPUT CARD>               67   -97   0                                                     
 INPUT CARD>               98   -130   0                                                    
 INPUT CARD>               131   -164   0                                                   
 INPUT CARD>               165   -198   0                                                   
 INPUT CARD>               199   -228   0                                                   
 INPUT CARD>               229   -258   0                                                   
 INPUT CARD>               259   -292   0                                                   
 INPUT CARD>               293   -325   0                                                   
 INPUT CARD>               326   -358   0                                                   
 INPUT CARD>               359   -392   0                                                   
 INPUT CARD>               393   -423   0                                                   
 INPUT CARD>               424   -456   0                                                   
 INPUT CARD>               457   -490   0                                                   
 INPUT CARD>               491   -518   0                                                   
 INPUT CARD> $END                                                                           
 INPUT CARD>                                                                                
 INPUT CARD> $FMOBND                                                                        
 INPUT CARD>   -37   36       6-31G*    MINI                                                
 INPUT CARD>   -67   66       6-31G*    MINI                                                


 -------------------------------------------------------------
 GROUP DDI, PROGRAMMED BY: RYAN M. OLSON AND DMITRI G. FEDOROV
        FEDOROV ET AL., J. COMPUT. CHEM., 25 (2004) 872.
 -------------------------------------------------------------

 -------------------------------------------------------
 GDDI: INITIALIZATION COMPLETED FOR GROUP     1 OF     1
 WITH    16 PROCESSES BALTYP=DLB   global rank=        0
 -------------------------------------------------------

   63000000 WORDS OF MEMORY AVAILABLE


     RUN TITLE
     ---------
  FMO calculation                                                                

 THE POINT GROUP OF THE MOLECULE IS C1      
 THE ORDER OF THE PRINCIPAL AXIS IS     0

 ATOM   ATOMIC CHARGE
 H.1-1       1.0
 O.1-1       8.0
 C.1-1       6.0
 N.1-1       7.0
 P.1-1      15.0

     ATOMIC BASIS SET LIBRARY
     ----------------
 THE CONTRACTED PRIMITIVE FUNCTIONS HAVE BEEN UNNORMALIZED
 THE CONTRACTED BASIS FUNCTIONS ARE NOW NORMALIZED TO UNITY

  SHELL TYPE  PRIMITIVE        EXPONENT          CONTRACTION COEFFICIENT(S)

 H.1-1     

      1   S       1            18.7311370    0.033494604338
      1   S       2             2.8253944    0.234726953484
      1   S       3             0.6401217    0.813757326146

      2   S       4             0.1612778    1.000000000000

 O.1-1     

      3   S       5          5484.6716600    0.001831074430
      3   S       6           825.2349460    0.013950172200
      3   S       7           188.0469580    0.068445078098
      3   S       8            52.9645000    0.232714335992
      3   S       9            16.8975704    0.470192897984
      3   S      10             5.7996353    0.358520852987

      4   L      11            15.5396162   -0.110777549525    0.070874268231
      4   L      12             3.5999336   -0.148026262701    0.339752839147
      4   L      13             1.0137618    1.130767015354    0.727158577316

      5   L      14             0.2700058    1.000000000000    1.000000000000

      6   D      15             0.8000000    1.000000000000

 C.1-1     

      7   S      16          3047.5248800    0.001834737132
      7   S      17           457.3695180    0.014037322813
      7   S      18           103.9486850    0.068842622264
      7   S      19            29.2101553    0.232184443216
      7   S      20             9.2866630    0.467941348435
      7   S      21             3.1639270    0.362311985337

      8   L      22             7.8682723   -0.119332419775    0.068999066591
      8   L      23             1.8812885   -0.160854151696    0.316423960957
      8   L      24             0.5442493    1.143456437840    0.744308290898

      9   L      25             0.1687145    1.000000000000    1.000000000000

     10   D      26             0.8000000    1.000000000000

 N.1-1     

     11   S      27          4173.5114600    0.001834772160
     11   S      28           627.4579110    0.013994627002
     11   S      29           142.9020930    0.068586551812
     11   S      30            40.2343293    0.232240873040
     11   S      31            12.8202129    0.469069948082
     11   S      32             4.3904370    0.360455199063

     12   L      33            11.6263619   -0.114961181702    0.067579743878
     12   L      34             2.7162798   -0.169117478561    0.323907295893
     12   L      35             0.7722184    1.145851947027    0.740895139755

     13   L      36             0.2120315    1.000000000000    1.000000000000

     14   D      37             0.8000000    1.000000000000

 P.1-1     

     15   S      38         19413.3000000    0.001851598923
     15   S      39          2909.4200000    0.014206191735
     15   S      40           661.3640000    0.069999459277
     15   S      41           185.7590000    0.240078860331
     15   S      42            59.1943000    0.484761717984
     15   S      43            20.0310000    0.335199804993

     16   L      44           339.4780000   -0.002782170105    0.004564616191
     16   L      45            81.0101000   -0.036049901354    0.033693571881
     16   L      46            25.8780000   -0.116631004382    0.139754883368
     16   L      47             9.4522100    0.096832803638    0.339361716786
     16   L      48             3.6656600    0.614418023082    0.450920623685
     16   L      49             1.4674600    0.403798015170    0.238585800889

     17   L      50             2.1562300   -0.252924113863   -0.017765312733
     17   L      51             0.7489970    0.032851844678    0.274058196433
     17   L      52             0.2831450    1.081254761783    0.785421562957

     18   L      53             0.0998317    1.000000000000    1.000000000000

     19   D      54             0.5500000    1.000000000000

 TOTAL NUMBER OF BASIS SET SHELLS             =   19
 NUMBER OF CARTESIAN GAUSSIAN BASIS FUNCTIONS =   66

     $CONTRL OPTIONS
     ---------------
 SCFTYP=RHF          RUNTYP=ENERGY       EXETYP=RUN     
 MPLEVL=       0     CITYP =NONE         CCTYP =NONE         VBTYP =NONE    
 DFTTYP=NONE         TDDFT =NONE    
 MULT  =       1     ICHARG=       0     NZVAR =       0     COORD =UNIQUE  
 PP    =NONE         RELWFN=NONE         LOCAL =NONE         NUMGRD=       F
 ISPHER=       1     NOSYM =       0     MAXIT =     200     UNITS =ANGS    
 PLTORB=       F     MOLPLT=       F     AIMPAC=       F     FRIEND=        
 NPRINT=      -5     IREST =       0     GEOM  =INPUT   
 NORMF =       0     NORMP =       0     ITOL  =      24     ICUT  =      12
 INTTYP=BEST         GRDTYP=BEST         QMTTOL= 1.0E-06

     $SYSTEM OPTIONS
     ---------------
  REPLICATED MEMORY=    63000000 WORDS (ON EVERY NODE).
 DISTRIBUTED MEMDDI=          63 MILLION WORDS IN AGGREGATE,
 MEMDDI DISTRIBUTED OVER  16 PROCESSORS IS     3937500 WORDS/PROCESSOR.
 TOTAL MEMORY REQUESTED ON EACH PROCESSOR=    66937500 WORDS.
 TIMLIM=      525600.00 MINUTES, OR     365.0 DAYS.
 PARALL= T  BALTYP=  DLB     KDIAG=    0  COREFL= F
 MXSEQ2=     300 MXSEQ3=     150  mem10=         0

 ** LOOKING UP INTERNALLY STORED DATA FOR SOLVENT=WATER    **
 OPTICAL AND PHYSICAL CONSTANTS:
 EPS= 78.390; EPSINF=  1.776; RSOLV=  1.385 A; VMOL=  18.070 ML/MOL;
 TCE= .25700E-03 1/K; STEN= 71.810 DYN/CM;  DSTEN=  0.6500; CMF=  1.2770


     -----------------------------------
     INPUT FOR PCM SOLVATION CALCULATION 
     -----------------------------------
     IEF   =     -10
     ICOMP =       2     IFIELD=       0     ICAV  =       1
     IDISP =       1     IREP  =       0     IDP   =       0

     SOLVNT=WATER        EPS   = 78.3900     EPSINF=  1.7760
     VMOL  = 18.0700     TCE   =  0.00025700 STEN  = 71.8100
     DSTEN =  0.6500     CMF   =  1.2770     RSOLV =  1.3850

     NESFP =       0
     OMEGA = 40.0000     RET   =100.0000     FRO   =  0.7000

     TABS  =298.0000     IPRINT=       0

     --------------------------------
     INPUT FOR ITERATIVE C-PCM METHOD 
     --------------------------------
     IPCMIT  =         1     MXDIIS  =        50
     MXITR1  =       200     MXITR2  =       200
     THRES   = 0.100E-09     IMUL    =         3
     RCUT(1) =   20.0000     RCUT(2) =   50.0000

     IDIRCT  =         1
     IMGABI  =         0     RABI    =    4.0000
     IMGASC  =         0     RASC    =   20.0000
     THRSLS  = 0.500E-03     DENSLS  =    0.0100
     IEFPOL  =         1     REFPOL  =    0.0000

     INPUT FOR ISOTROPIC DIELECTRICS
     -------------------------------
     EPS=    78.39

          ----------------
          PROPERTIES INPUT
          ----------------

     MOMENTS            FIELD           POTENTIAL          DENSITY
 IEMOM =       1   IEFLD =       0   IEPOT =       0   IEDEN =       0
 WHERE =COMASS     WHERE =NUCLEI     WHERE =NUCLEI     WHERE =NUCLEI  
 OUTPUT=BOTH       OUTPUT=BOTH       OUTPUT=NONE       OUTPUT=BOTH    
 IEMINT=       0   IEFINT=       0                     IEDINT=       0
                                                       MORB  =       0
          EXTRAPOLATION IN EFFECT
          SOSCF IN EFFECT
 ORBITAL PRINTING OPTION: NPREO=     1 32767     2     1

     -------------------------------
     INTEGRAL TRANSFORMATION OPTIONS
     -------------------------------
     NWORD  =            0
     CUTOFF = 1.0E-10     MPTRAN =       0
     DIRTRF =       T     AOINTS =DUP     

          ----------------------
          INTEGRAL INPUT OPTIONS
          ----------------------
 NOPK  =       1 NORDER=       0 SCHWRZ=       T

 ..... DONE SETTING UP THE RUN .....
 CPU     0: STEP CPU TIME=     0.04 TOTAL CPU TIME=          0.0 (      0.0 MIN)
 TOTAL WALL CLOCK TIME=          0.1 SECONDS, CPU UTILIZATION IS    66.67%
 CPU     0: STEP CPU TIME=     0.00 TOTAL CPU TIME=          0.0 (      0.0 MIN)
 TOTAL WALL CLOCK TIME=          0.1 SECONDS, CPU UTILIZATION IS    66.67%

                    ----------------------
                    AO INTEGRAL TECHNOLOGY
                    ----------------------
     S,P,L SHELL ROTATED AXIS INTEGRALS, REPROGRAMMED BY
        KAZUYA ISHIMURA (IMS) AND JOSE SIERRA (SYNSTAR).
     S,P,D,L SHELL ROTATED AXIS INTEGRALS PROGRAMMED BY
        KAZUYA ISHIMURA (INSTITUTE FOR MOLECULAR SCIENCE).
     S,P,D,F,G SHELL TO TOTAL QUARTET ANGULAR MOMENTUM SUM 5,
        ERIC PROGRAM BY GRAHAM FLETCHER (ELORET AND NASA ADVANCED
        SUPERCOMPUTING DIVISION, AMES RESEARCH CENTER).
     S,P,D,F,G,L SHELL GENERAL RYS QUADRATURE PROGRAMMED BY
        MICHEL DUPUIS (PACIFIC NORTHWEST NATIONAL LABORATORY).
 Setting modorb=1 flag...
 Setting modorb=1 flag...

          -----------------------
          MP2 CONTROL INFORMATION
          -----------------------
          NACORE =        8  NBCORE =        8
          LMOMP2 =        F  AOINTS = DUP     
          METHOD =        2  NWORD  =               0
          MP2PRP =        F  OSPT   = NONE    
          CUTOFF = 1.00E-12  CPHFBS = BASISAO 
          CODE   = IMS     

          NUMBER OF CORE -A-  ORBITALS =     8
          NUMBER OF CORE -B-  ORBITALS =     8
          NUMBER OF OCC. -A-  ORBITALS =    18
          NUMBER OF OCC. -B-  ORBITALS =    18
          NUMBER OF MOLECULAR ORBITALS =    66
          NUMBER OF   BASIS  FUNCTIONS =    66

 CPU     0: STEP CPU TIME=     0.04 TOTAL CPU TIME=          0.1 (      0.0 MIN)
 TOTAL WALL CLOCK TIME=          0.1 SECONDS, CPU UTILIZATION IS    80.00%
 CPU     0: STEP CPU TIME=     0.00 TOTAL CPU TIME=          0.1 (      0.0 MIN)
 TOTAL WALL CLOCK TIME=          0.1 SECONDS, CPU UTILIZATION IS    80.00%

     INPUT FOR CAVITY DEFINITION 
     ---------------------------
   ATOM               COORDINATES                RADIUS       EPS
      1      7.6760    -53.2330     40.6990      0.0100     78.3900
      2      8.0950    -53.4270     39.8350      1.5900     78.3900
      3      9.4610    -53.7700     40.1170      1.7700     78.3900
      4      9.4790    -54.6440     40.8060      0.0100     78.3900
      5      9.9610    -52.9190     40.6310      0.0100     78.3900
      6     10.2570    -54.1290     38.8610      1.7700     78.3900
      7     11.2890    -54.4440     39.1330      0.0100     78.3900
      8      9.6190    -55.2530     38.1800      1.5900     78.3900
      9      9.7770    -55.0920     36.7840      1.7700     78.3900
     10     10.2970    -56.0020     36.4080      0.0100     78.3900
     11      8.4960    -54.9240     36.0830      1.6800     78.3900
     12      8.2980    -55.2080     34.7590      1.7700     78.3900
     13      9.6150    -56.0750     31.6750      1.6800     78.3900
     14     10.5510    -56.3380     31.8970      0.0100     78.3900
     15      9.3390    -56.0110     30.7110      0.0100     78.3900
     16      9.2270    -55.6920     33.9150      1.6800     78.3900
     17      8.8180    -55.6820     32.6510      1.7700     78.3900
     18      7.5520    -55.3200     32.2800      1.6800     78.3900
     19      7.3310    -55.3050     31.2960      0.0100     78.3900
     20      6.5480    -54.8900     33.1360      1.7700     78.3900
     21      5.4330    -54.6050     32.6900      1.5900     78.3900
     22      6.9980    -54.8300     34.4870      1.7700     78.3900
     23      6.3780    -54.3200     35.6330      1.6800     78.3900
     24      7.3190    -54.3790     36.5530      1.7700     78.3900
     25      7.2120    -54.0680     37.5960      0.0100     78.3900
     26     10.6480    -53.8820     36.5610      1.7700     78.3900
     27     10.3520    -53.3350     35.6480      0.0100     78.3900
     28     12.0170    -54.2380     36.4950      1.5900     78.3900
     29     12.4970    -53.4150     36.3400      0.0100     78.3900
     30     10.3490    -53.0290     37.7840      1.7700     78.3900
     31      9.3400    -52.5610     37.7090      0.0100     78.3900
     32     11.3800    -52.0660     38.1000      1.5900     78.3900
     33     11.4160    -50.6690     37.3540      2.1000     78.3900
     34     12.6680    -49.9670     37.7130      1.5900     78.3900
     35     10.1510    -49.9650     37.6440      1.5900     78.3900
     36     11.4410    -50.9910     35.8120      1.5900     78.3900
     37     12.6670    -51.2630     35.0980      1.7700     78.3900
     38     13.2920    -52.0070     35.6470      0.0100     78.3900
     39     13.2710    -50.3310     35.0050      0.0100     78.3900
     40     12.4340    -51.8250     33.6750      1.7700     78.3900
     41     13.3670    -52.3130     33.3250      0.0100     78.3900
     42     11.3860    -52.8330     33.6500      1.5900     78.3900
     43     10.6200    -52.7010     32.4650      1.7700     78.3900
     44     10.5810    -53.7210     32.0230      0.0100     78.3900
     45      9.2370    -52.2110     32.7080      1.6800     78.3900
     46      8.8210    -51.7610     33.9400      1.7700     78.3900
     47      9.5900    -51.7200     34.7080      0.0100     78.3900
     48      8.3560    -52.2960     31.6550      1.7700     78.3900
     49      8.6940    -52.7520     30.5710      1.5900     78.3900
     50      7.0770    -51.8800     31.9230      1.6800     78.3900
     51      6.4250    -51.8570     31.1480      0.0100     78.3900
     52      6.5650    -51.5810     33.1700      1.7700     78.3900
     53      5.3570    -51.4920     33.3510      1.5900     78.3900
     54      7.5440    -51.4510     34.2050      1.7700     78.3900
     55      7.1920    -51.1970     35.2070      0.0100     78.3900
     56     11.4050    -51.7980     31.5570      1.7700     78.3900
     57     10.7730    -51.2590     30.8220      0.0100     78.3900
     58     12.3520    -52.6070     30.8840      1.5900     78.3900
     59     12.9880    -52.9460     31.5280      0.0100     78.3900
     60     12.0150    -50.8340     32.5890      1.7700     78.3900
     61     11.2160    -50.1960     33.0270      0.0100     78.3900
     62     13.1390    -50.0270     32.2110      1.5900     78.3900
     63     13.5220    -49.5650     30.7640      2.1000     78.3900
     64     14.1520    -50.6920     30.0450      1.5900     78.3900
     65     14.3560    -48.3480     30.8680      1.5900     78.3900
     66     12.1340    -49.1890     30.1200      1.5900     78.3900
     67     11.8130    -49.5740     28.7640      1.7700     78.3900
     68     11.8460    -50.6810     28.6340      0.0100     78.3900
     69     12.5460    -49.1150     28.0610      0.0100     78.3900
     70     10.4240    -49.0600     28.3610      1.7700     78.3900
     71     10.2360    -49.2220     27.2790      0.0100     78.3900
     72      9.3650    -49.7400     29.0900      1.5900     78.3900
     73      8.2680    -48.8350     29.2780      1.7700     78.3900
     74      7.4030    -49.2230     28.6880      0.0100     78.3900
     75      7.8750    -48.6300     30.6830      1.6800     78.3900
     76      8.7190    -48.9900     31.7010      1.7700     78.3900
     77      9.5440    -49.6480     31.4180      0.0100     78.3900
     78      8.4840    -48.6000     32.9600      1.7700     78.3900
     79      9.1400    -48.8610     33.7870      0.0100     78.3900
     80      6.7520    -47.8360     30.9370      1.7700     78.3900
     81      6.0400    -47.4560     29.9960      1.5900     78.3900
     82      6.5330    -47.4140     32.1980      1.6800     78.3900
     83      7.3980    -47.7010     33.1700      1.7700     78.3900
     84      7.3000    -47.0250     34.3040      1.6800     78.3900
     85      6.7290    -46.2020     34.2120      0.0100     78.3900
     86      8.0430    -47.0080     34.9720      0.0100     78.3900
     87      8.7020    -47.4860     28.7400      1.7700     78.3900
     88      8.4470    -46.6610     29.4320      0.0100     78.3900
     89      8.1160    -47.1830     27.5080      1.5900     78.3900
     90      8.3760    -46.2750     27.3120      0.0100     78.3900
     91     10.2190    -47.5900     28.6860      1.7700     78.3900
     92     10.6240    -47.4160     29.7120      0.0100     78.3900
     93     10.8770    -46.7710     27.6930      1.5900     78.3900
     94     10.9310    -45.2310     28.0140      2.1000     78.3900
     95     11.8470    -45.0130     29.1530      1.5900     78.3900
     96      9.5560    -44.7050     28.1810      1.5900     78.3900
     97     11.5760    -44.5940     26.7280      1.5900     78.3900
     98     10.7710    -43.8710     25.7690      1.7700     78.3900
     99     11.2690    -42.9030     25.5350      0.0100     78.3900
    100      9.7490    -43.5990     26.1330      0.0100     78.3900
    101     10.6360    -44.6500     24.4730      1.7700     78.3900
    102     11.6200    -45.0200     24.1040      0.0100     78.3900
    103      9.7680    -45.7960     24.6710      1.5900     78.3900
    104      8.8960    -45.9200     23.5540      1.7700     78.3900
    105      9.0300    -46.9540     23.1600      0.0100     78.3900
    106      7.5070    -45.7270     23.9480      1.6800     78.3900
    107      5.3200    -45.6040     23.9760      1.7700     78.3900
    108      5.7370    -45.4250     25.2760      1.6800     78.3900
    109      7.0320    -45.4910     25.2120      1.7700     78.3900
    110      7.7070    -45.3330     26.0520      0.0100     78.3900
    111      3.9620    -45.7430     22.0500      1.6800     78.3900
    112      5.0980    -45.9170     21.3710      1.7700     78.3900
    113      4.9750    -46.0440     20.2910      0.0100     78.3900
    114      6.3600    -46.0070     21.8050      1.6800     78.3900
    115      6.4000    -45.7980     23.1370      1.7700     78.3900
    116      4.0410    -45.5980     23.3930      1.7700     78.3900
    117      2.9250    -45.4580     24.1270      1.6800     78.3900
    118      2.9950    -45.3350     25.1150      0.0100     78.3900
    119      2.0490    -45.3380     23.6580      0.0100     78.3900
    120      9.3300    -44.9140     22.5200      1.7700     78.3900
    121      8.4840    -44.4990     21.9340      0.0100     78.3900
    122     10.2790    -45.4820     21.6350      1.5900     78.3900
    123     10.7170    -44.7500     21.1720      0.0100     78.3900
    124      9.9430    -43.8410     23.3900      1.7700     78.3900
    125      9.1480    -43.2570     23.9170      0.0100     78.3900
    126     10.8950    -43.0310     22.6850      1.5900     78.3900
    127     10.6840    -41.4900     22.5620      2.1000     78.3900
    128     11.5680    -41.0090     21.4770      1.5900     78.3900
    129     10.8790    -40.8960     23.9000      1.5900     78.3900
    130      9.1680    -41.3690     22.1180      1.5900     78.3900
    131      8.7900    -41.7660     20.7710      1.7700     78.3900
    132      9.2010    -42.7700     20.5110      0.0100     78.3900
    133      9.1930    -41.0350     20.0290      0.0100     78.3900
    134      7.2620    -41.8560     20.5670      1.7700     78.3900
    135      7.0310    -42.2830     19.5690      0.0100     78.3900
    136      6.6770    -42.7440     21.5570      1.5900     78.3900
    137      5.4360    -42.2300     22.0060      1.7700     78.3900
    138      4.6200    -42.7230     21.4330      0.0100     78.3900
    139      5.2800    -42.4130     23.4400      1.6800     78.3900
    140      4.1220    -42.4430     24.1700      1.7700     78.3900
    141      0.6550    -42.3930     24.3870      1.6800     78.3900
    142      0.3720    -42.2290     23.4420      0.0100     78.3900
    143     -0.0380    -42.3940     25.1070      0.0100     78.3900
    144      2.8620    -42.3800     23.6850      1.6800     78.3900
    145      1.9490    -42.4740     24.6560      1.7700     78.3900
    146      2.2740    -42.6580     25.9740      1.6800     78.3900
    147      1.5440    -42.7300     26.6690      0.0100     78.3900
    148      3.5620    -42.7150     26.4840      1.7700     78.3900
    149      3.7690    -42.8800     27.6820      1.5900     78.3900
    150      4.5370    -42.5270     25.4800      1.7700     78.3900
    151      5.9240    -42.4410     25.5770      1.6800     78.3900
    152      6.3190    -42.3640     24.3350      1.7700     78.3900
    153      7.3520    -42.3470     23.9720      0.0100     78.3900
    154      5.4550    -40.7640     21.7800      1.7700     78.3900
    155      5.8160    -40.2410     22.6980      0.0100     78.3900
    156      4.1740    -40.2850     21.4240      1.5900     78.3900
    157      4.2700    -39.3240     21.3450      0.0100     78.3900
    158      6.5120    -40.5260     20.7060      1.7700     78.3900
    159      7.2460    -39.8040     21.1420      0.0100     78.3900
    160      5.9860    -40.0660     19.4450      1.5900     78.3900
    161      6.5990    -38.8420     18.6880      2.1000     78.3900
    162      6.1810    -38.9780     17.2730      1.5900     78.3900
    163      8.0490    -38.7900     18.9530      1.5900     78.3900
    164      5.8990    -37.5620     19.2950      1.5900     78.3900
    165      6.4140    -36.7930     20.4080      1.7700     78.3900
    166      6.6230    -35.7550     20.0700      0.0100     78.3900
    167      7.3760    -37.1960     20.8070      0.0100     78.3900
    168      5.3750    -36.7510     21.5380      1.7700     78.3900
    169      4.3510    -36.7480     21.1050      0.0100     78.3900
    170      5.5240    -37.9450     22.3030      1.5900     78.3900
    171      4.9630    -37.7920     23.5850      1.7700     78.3900
    172      4.0520    -38.4360     23.6090      0.0100     78.3900
    173      5.8820    -38.2640     24.6350      1.6800     78.3900
    174      5.5370    -38.8020     25.8520      1.7700     78.3900
    175      3.1330    -39.8390     28.1340      1.6800     78.3900
    176      2.2800    -39.6720     27.6440      0.0100     78.3900
    177      3.1330    -40.4850     28.9000      0.0100     78.3900
    178      4.2850    -38.9780     26.3160      1.6800     78.3900
    179      4.2710    -39.5620     27.5160      1.7700     78.3900
    180      5.4070    -39.9030     28.1970      1.6800     78.3900
    181      5.3100    -40.2870     29.1250      0.0100     78.3900
    182      6.7080    -39.7240     27.7550      1.7700     78.3900
    183      7.6770    -40.0550     28.4480      1.5900     78.3900
    184      6.7350    -39.1210     26.4670      1.7700     78.3900
    185      7.8110    -38.8070     25.6480      1.6800     78.3900
    186      7.2560    -38.3180     24.5660      1.7700     78.3900
    187      7.7970    -37.9720     23.6810      0.0100     78.3900
    188      4.5650    -36.3440     23.7150      1.7700     78.3900
    189      4.7990    -35.9200     24.7130      0.0100     78.3900
    190      3.1790    -36.2320     23.4500      1.5900     78.3900
    191      2.9470    -35.3100     23.6660      0.0100     78.3900
    192      5.3960    -35.6600     22.6120      1.7700     78.3900
    193      6.4540    -35.5360     22.9300      0.0100     78.3900
    194      4.8500    -34.4330     22.0870      1.5900     78.3900
    195      4.6770    -33.1910     23.0360      2.1000     78.3900
    196      4.5090    -31.9920     22.1850      1.5900     78.3900
    197      5.7770    -33.1940     24.0230      1.5900     78.3900
    198      3.3050    -33.5080     23.7630      1.5900     78.3900
    199      3.0120    -32.8960     25.0400      1.7700     78.3900
    200      2.4550    -31.9460     24.8790      0.0100     78.3900
    201      3.9360    -32.6390     25.6100      0.0100     78.3900
    202      2.1600    -33.7870     25.9620      1.7700     78.3900
    203      1.1360    -33.9310     25.5590      0.0100     78.3900
    204      2.7440    -35.1040     26.1390      1.5900     78.3900
    205      2.7150    -35.4770     27.5160      1.7700     78.3900
    206      2.1920    -36.4620     27.5480      0.0100     78.3900
    207      4.0920    -35.6460     28.0770      1.6800     78.3900
    208      5.1870    -35.2660     27.3320      1.7700     78.3900
    209      4.9780    -34.6630     26.4440      0.0100     78.3900
    210      4.2560    -36.3020     29.2870      1.7700     78.3900
    211      3.3160    -36.6540     29.9860      1.5900     78.3900
    212      5.5640    -36.5650     29.6280      1.6800     78.3900
    213      5.7270    -37.0550     30.4990      0.0100     78.3900
    214      6.6730    -36.3900     28.8260      1.7700     78.3900
    215      7.7600    -36.8580     29.1460      1.5900     78.3900
    216      6.4350    -35.6270     27.6430      1.7700     78.3900
    217      7.2740    -35.4010     26.9890      0.0100     78.3900
    218      1.8640    -34.4490     28.2340      1.7700     78.3900
    219      2.1870    -34.2840     29.2810      0.0100     78.3900
    220      0.5030    -34.8370     28.2150      1.5900     78.3900
    221     -0.0180    -34.0450     28.4090      0.0100     78.3900
    222      2.0820    -33.2140     27.3770      1.7700     78.3900
    223      3.0900    -32.7850     27.5930      0.0100     78.3900
    224      1.0130    -32.2450     27.4430      1.5900     78.3900
    225      1.2090    -30.9640     28.3210      2.1000     78.3900
    226     -0.0400    -30.1710     28.3100      1.5900     78.3900
    227      2.4440    -30.2720     27.8870      1.5900     78.3900
    228      1.4590    -31.5440     29.7670      1.5900     78.3900
    229      0.3630    -32.1080     30.5260      1.7700     78.3900
    230     -0.0850    -32.9890     30.0110      0.0100     78.3900
    231     -0.4430    -31.3490     30.6610      0.0100     78.3900
    232      0.8100    -32.5410     31.9290      1.7700     78.3900
    233     -0.0610    -32.7860     32.5740      0.0100     78.3900
    234      1.6220    -33.7470     31.8540      1.5900     78.3900
    235      2.6740    -33.6490     32.8120      1.7700     78.3900
    236      2.5830    -34.5540     33.4580      0.0100     78.3900
    237      4.0200    -33.6450     32.1800      1.6800     78.3900
    238      4.1700    -33.2710     30.8650      1.7700     78.3900
    239      3.2540    -32.9850     30.3450      0.0100     78.3900
    240      5.3670    -33.2890     30.2630      1.7700     78.3900
    241      5.4960    -33.0490     29.2100      0.0100     78.3900
    242      5.1500    -33.9230     32.9420      1.7700     78.3900
    243      5.0280    -34.1270     34.1570      1.5900     78.3900
    244      6.3600    -33.9660     32.3500      1.6800     78.3900
    245      6.4850    -33.7070     31.0400      1.7700     78.3900
    246      7.6720    -33.8870     30.4680      1.6800     78.3900
    247      8.4060    -34.2990     31.0160      0.0100     78.3900
    248      7.8280    -33.7440     29.4910      0.0100     78.3900
    249      2.4180    -32.4160     33.6590      1.7700     78.3900
    250      3.3610    -31.9420     34.0130      0.0100     78.3900
    251      1.5950    -32.7460     34.7670      1.5900     78.3900
    252      1.3100    -31.9240     35.2060      0.0100     78.3900
    253      1.6990    -31.5270     32.6600      1.7700     78.3900
    254      2.4310    -31.1030     31.9370      0.0100     78.3900
    255      0.9060    -30.4840     33.2540      1.5900     78.3900
    256      1.4870    -29.8520     33.7130      0.0100     78.3900
    257     15.8330    -37.9410     36.6820      0.0100     78.3900
    258     14.9890    -37.4970     36.8750      1.5900     78.3900
    259     14.9630    -37.2660     38.2920      1.7700     78.3900
    260     15.8060    -36.5910     38.5620      0.0100     78.3900
    261     15.1080    -38.2320     38.8250      0.0100     78.3900
    262     13.6580    -36.6310     38.7790      1.7700     78.3900
    263     13.7080    -36.3830     39.8590      0.0100     78.3900
    264     13.3920    -35.3840     38.0640      1.5900     78.3900
    265     12.0040    -35.3000     37.7770      1.7700     78.3900
    266     11.6420    -34.3410     38.2130      0.0100     78.3900
    267     11.7370    -35.2850     36.3300      1.6800     78.3900
    268     10.5460    -34.9730     35.7220      1.7700     78.3900
    269      7.2020    -34.0780     35.9270      1.6800     78.3900
    270      7.0410    -34.0560     36.9100      0.0100     78.3900
    271      6.4100    -34.0700     35.3090      0.0100     78.3900
    272      9.4040    -34.6260     36.3460      1.6800     78.3900
    273      8.4070    -34.4020     35.4940      1.7700     78.3900
    274      8.5510    -34.5000     34.1350      1.6800     78.3900
    275      7.7380    -34.3370     33.5590      0.0100     78.3900
    276      9.7210    -34.8240     33.4590      1.7700     78.3900
    277      9.7630    -34.8560     32.2240      1.5900     78.3900
    278     10.7860    -35.0790     34.3640      1.7700     78.3900
    279     12.1070    -35.4360     34.1200      1.6800     78.3900
    280     12.6330    -35.5460     35.3180      1.7700     78.3900
    281     13.6710    -35.8080     35.5350      0.0100     78.3900
    282     11.3240    -36.4500     38.4810      1.7700     78.3900
    283     10.4630    -36.8310     37.9010      0.0100     78.3900
    284     10.9120    -36.0560     39.7770      1.5900     78.3900
    285     10.5710    -36.8600     40.1900      0.0100     78.3900
    286     12.4190    -37.5030     38.5430      1.7700     78.3900
    287     12.5520    -37.9880     37.5460      0.0100     78.3900
    288     12.2780    -38.4580     39.6210      1.5900     78.3900
    289     11.5960    -39.8520     39.3750      2.1000     78.3900
    290     11.6260    -40.6100     40.6440      1.5900     78.3900
    291     12.2370    -40.4900     38.2080      1.5900     78.3900
    292     10.1100    -39.4880     39.0050      1.5900     78.3900
    293      9.2020    -39.0020     40.0220      1.7700     78.3900
    294      9.6680    -38.2190     40.6660      0.0100     78.3900
    295      8.8960    -39.8410     40.6870      0.0100     78.3900
    296      7.9320    -38.4020     39.3970      1.7700     78.3900
    297      7.2850    -37.9450     40.1770      0.0100     78.3900
    298      8.2710    -37.3570     38.4460      1.5900     78.3900
    299      7.3620    -37.3980     37.3610      1.7700     78.3900
    300      6.8870    -36.3920     37.3200      0.0100     78.3900
    301      8.0040    -37.6740     36.0750      1.6800     78.3900
    302      8.2970    -37.8690     33.9050      1.7700     78.3900
    303      9.5060    -38.2170     34.4990      1.6800     78.3900
    304      9.2760    -38.0960     35.7870      1.7700     78.3900
    305     10.0000    -38.3090     36.5760      0.0100     78.3900
    306      6.6030    -37.3520     32.3310      1.6800     78.3900
    307      5.8130    -37.1050     33.3760      1.7700     78.3900
    308      4.7780    -36.8210     33.1430      0.0100     78.3900
    309      6.0920    -37.1890     34.6770      1.6800     78.3900
    310      7.3670    -37.5460     34.8720      1.7700     78.3900
    311      7.8820    -37.7520     32.5590      1.7700     78.3900
    312      8.6750    -37.9960     31.5030      1.6800     78.3900
    313      9.6550    -38.1790     31.5970      0.0100     78.3900
    314      8.3190    -37.7560     30.5940      0.0100     78.3900
    315      6.3240    -38.4270     37.6730      1.7700     78.3900
    316      5.9910    -38.9560     36.7620      0.0100     78.3900
    317      5.1980    -37.8500     38.3050      1.5900     78.3900
    318      4.6610    -38.6110     38.5850      0.0100     78.3900
    319      7.0790    -39.3720     38.5880      1.7700     78.3900
    320      7.7650    -40.0200     37.9920      0.0100     78.3900
    321      6.2010    -40.0910     39.4550      1.5900     78.3900
    322      6.4140    -41.5770     39.8410      2.1000     78.3900
    323      6.9160    -41.6110     41.2330      1.5900     78.3900
    324      7.2150    -42.2820     38.8150      1.5900     78.3900
    325      4.9310    -42.1230     39.8500      1.5900     78.3900
    326      4.2990    -42.6750     38.6720      1.7700     78.3900
    327      3.6470    -43.5170     38.9980      0.0100     78.3900
    328      5.0380    -43.1150     37.9600      0.0100     78.3900
    329      3.3920    -41.6920     37.9020      1.7700     78.3900
    330      2.6030    -41.2570     38.5550      0.0100     78.3900
    331      4.1660    -40.6030     37.3400      1.5900     78.3900
    332      3.7380    -40.3110     36.0180      1.7700     78.3900
    333      3.4510    -39.2330     35.9990      0.0100     78.3900
    334      4.8260    -40.5310     35.0520      1.6800     78.3900
    335      6.0270    -40.6480     33.2130      1.7700     78.3900
    336      6.8350    -41.1240     34.2370      1.6800     78.3900
    337      6.0780    -41.0440     35.3020      1.7700     78.3900
    338      6.3800    -41.3390     36.3120      0.0100     78.3900
    339      5.1980    -40.0180     31.0880      1.6800     78.3900
    340      4.0960    -39.6090     31.7200      1.7700     78.3900
    341      3.3090    -39.2110     31.0670      0.0100     78.3900
    342      3.7940    -39.6780     33.0240      1.6800     78.3900
    343      4.8020    -40.2400     33.7120      1.7700     78.3900
    344      6.2120    -40.5540     31.8160      1.7700     78.3900
    345      7.3260    -40.9550     31.1770      1.6800     78.3900
    346      8.1520    -41.2390     31.6680      0.0100     78.3900
    347      7.4110    -40.7180     30.2050      0.0100     78.3900
    348      2.5290    -41.1730     35.7340      1.7700     78.3900
    349      2.4960    -41.5110     34.6790      0.0100     78.3900
    350      1.3340    -40.4820     36.0380      1.5900     78.3900
    351      0.6150    -41.1160     35.8990      0.0100     78.3900
    352      2.7510    -42.3540     36.6790      1.7700     78.3900
    353      3.5280    -43.0390     36.2660      0.0100     78.3900
    354      1.5560    -43.0540     37.0820      1.5900     78.3900
    355      0.9400    -44.1400     36.1270      2.1000     78.3900
    356     -0.1380    -44.8250     36.8690      1.5900     78.3900
    357      2.0530    -44.9960     35.6600      1.5900     78.3900
    358      0.2780    -43.2990     34.9610      1.5900     78.3900
    359      0.0490    -43.8080     33.6180      1.7700     78.3900
    360     -0.9910    -43.5720     33.3050      0.0100     78.3900
    361      0.1490    -44.9160     33.5670      0.0100     78.3900
    362      1.0080    -43.1720     32.5920      1.7700     78.3900
    363      0.8030    -42.0820     32.5050      0.0100     78.3900
    364      2.3330    -43.3140     33.0960      1.5900     78.3900
    365      3.2390    -43.0440     32.0820      1.7700     78.3900
    366      3.4210    -41.9620     32.1740      0.0100     78.3900
    367      4.5390    -43.6710     32.3460      1.6800     78.3900
    368      5.5600    -43.9700     31.4980      1.7700     78.3900
    369      6.7970    -44.2840     28.3150      1.6800     78.3900
    370      7.6830    -44.5250     27.9290      0.0100     78.3900
    371      5.9590    -44.2570     27.7740      0.0100     78.3900
    372      5.5490    -43.8040     30.1770      1.6800     78.3900
    373      6.6750    -44.1800     29.6140      1.7700     78.3900
    374      7.8090    -44.4520     30.3230      1.6800     78.3900
    375      8.6400    -44.6400     29.7840      0.0100     78.3900
    376      7.8910    -44.5660     31.7030      1.7700     78.3900
    377      8.9700    -44.8350     32.2430      1.5900     78.3900
    378      6.6190    -44.3440     32.3100      1.7700     78.3900
    379      6.2390    -44.3540     33.6490      1.6800     78.3900
    380      5.0010    -43.9370     33.6170      1.7700     78.3900
    381      4.3520    -43.7980     34.4850      0.0100     78.3900
    382      2.5560    -43.2830     30.7380      1.7700     78.3900
    383      3.0400    -44.0750     30.1270      0.0100     78.3900
    384      2.5260    -42.0480     30.0420      1.5900     78.3900
    385      2.1270    -42.2280     29.1680      0.0100     78.3900
    386      1.1350    -43.7310     31.1610      1.7700     78.3900
    387      1.1340    -44.8270     31.2610      0.0100     78.3900
    388      0.0200    -43.3080     30.3610      1.5900     78.3900
    389     -0.1690    -43.4180     28.8080      2.1000     78.3900
    390      0.6070    -42.3450     28.1510      1.5900     78.3900
    391     -1.6230    -43.4410     28.5270      1.5900     78.3900
    392      0.4900    -44.7660     28.3710      1.5900     78.3900
    393     -0.0800    -46.0350     28.7080      1.7700     78.3900
    394     -0.9750    -46.2360     28.0750      0.0100     78.3900
    395     -0.3960    -46.0680     29.7770      0.0100     78.3900
    396      0.9160    -47.1680     28.4580      1.7700     78.3900
    397      1.1430    -47.2700     27.3760      0.0100     78.3900
    398      2.1730    -46.9580     29.1440      1.5900     78.3900
    399      2.6200    -48.1800     29.7280      1.7700     78.3900
    400      3.6150    -48.3900     29.2690      0.0100     78.3900
    401      2.8250    -48.0460     31.1940      1.6800     78.3900
    402      2.0660    -47.1300     31.8600      1.7700     78.3900
    403      1.3000    -46.6460     31.2610      0.0100     78.3900
    404      2.2940    -46.8290     33.1380      1.7700     78.3900
    405      1.7830    -46.0150     33.6370      0.0100     78.3900
    406      3.7060    -48.8540     31.9130      1.7700     78.3900
    407      4.2620    -49.7930     31.3280      1.5900     78.3900
    408      3.9220    -48.5940     33.2360      1.6800     78.3900
    409      3.3280    -47.5320     33.8050      1.7700     78.3900
    410      3.6980    -47.1040     35.0090      1.6800     78.3900
    411      3.2480    -46.2710     35.3650      0.0100     78.3900
    412      4.5260    -47.4650     35.4290      0.0100     78.3900
    413      1.6440    -49.2770     29.3230      1.7700     78.3900
    414      1.4640    -50.0020     30.1420      0.0100     78.3900
    415      2.1180    -49.9680     28.1870      1.5900     78.3900
    416      1.9030    -49.4720     27.3830      0.0100     78.3900
    417      0.3760    -48.4760     29.0060      1.7700     78.3900
    418     -0.1470    -48.2380     29.9560      0.0100     78.3900
    419     -0.5350    -48.9950     28.0390      1.5900     78.3900
    420     -1.3590    -50.3030     28.1760      2.1000     78.3900
    421     -2.7440    -49.9420     28.5570      1.5900     78.3900
    422     -0.6870    -51.3080     29.0270      1.5900     78.3900
    423     -1.3630    -50.8040     26.6730      1.5900     78.3900
    424     -0.1240    -51.1760     26.0230      1.7700     78.3900
    425     -0.2990    -52.1460     25.5050      0.0100     78.3900
    426      0.7140    -51.3710     26.7320      0.0100     78.3900
    427      0.3250    -50.1550     24.9600      1.7700     78.3900
    428     -0.5470    -49.6310     24.5050      0.0100     78.3900
    429      1.2530    -49.1570     25.5120      1.5900     78.3900
    430      2.1580    -48.7230     24.4930      1.7700     78.3900
    431      1.8090    -47.7110     24.2060      0.0100     78.3900
    432      3.5740    -48.6190     24.9840      1.6800     78.3900
    433      5.7830    -48.6230     25.1780      1.7700     78.3900
    434      5.2850    -48.3790     26.4320      1.6800     78.3900
    435      3.9880    -48.3570     26.2730      1.7700     78.3900
    436      3.2810    -48.1440     27.0750      0.0100     78.3900
    437      7.2580    -49.0170     23.3560      1.6800     78.3900
    438      6.1700    -48.9950     22.5870      1.7700     78.3900
    439      6.3270    -49.1550     21.5130      0.0100     78.3900
    440      4.8970    -48.8080     22.9350      1.6800     78.3900
    441      4.7550    -48.7010     24.2640      1.7700     78.3900
    442      7.0930    -48.8340     24.6880      1.7700     78.3900
    443      8.1990    -48.9190     25.4380      1.6800     78.3900
    444      8.1500    -48.4410     26.3360      0.0100     78.3900
    445      9.0800    -48.9790     24.9750      0.0100     78.3900
    446      1.9700    -49.6640     23.2960      1.7700     78.3900
    447      2.9090    -50.1010     22.9080      0.0100     78.3900
    448      1.2950    -48.9880     22.2550      1.5900     78.3900
    449      0.9520    -49.6670     21.6520      0.0100     78.3900
    450      1.1300    -50.8100     23.8550      1.7700     78.3900
    451      1.7580    -51.5270     24.4180      0.0100     78.3900
    452      0.2910    -51.4580     22.8740      1.5900     78.3900
    453      0.6050    -52.9320     22.4070      2.1000     78.3900
    454      0.1750    -53.0870     20.9980      1.5900     78.3900
    455     -0.0010    -53.8610     23.3840      1.5900     78.3900
    456      2.1750    -53.0630     22.5040      1.5900     78.3900
    457      2.9890    -52.7440     21.3490      1.7700     78.3900
    458      2.7760    -51.7140     20.9780      0.0100     78.3900
    459      2.7790    -53.4590     20.5200      0.0100     78.3900
    460      4.4860    -52.8380     21.6700      1.7700     78.3900
    461      5.0950    -52.7370     20.7450      0.0100     78.3900
    462      4.8620    -51.7470     22.5280      1.5900     78.3900
    463      5.9410    -52.1420     23.3670      1.7700     78.3900
    464      6.8070    -51.4900     23.1190      0.0100     78.3900
    465      5.6220    -51.9680     24.7860      1.6800     78.3900
    466      6.4750    -51.9840     25.8550      1.7700     78.3900
    467      9.6140    -52.5240     27.1860      1.6800     78.3900
    468     10.0460    -52.5080     28.0820      0.0100     78.3900
    469     10.1520    -52.7200     26.3710      0.0100     78.3900
    470      7.8010    -52.2060     25.8060      1.6800     78.3900
    471      8.3370    -52.2350     27.0230      1.7700     78.3900
    472      7.6200    -52.0390     28.1700      1.6800     78.3900
    473      8.1080    -52.0570     29.0500      0.0100     78.3900
    474      6.2710    -51.7580     28.2540      1.7700     78.3900
    475      5.7440    -51.6100     29.3600      1.5900     78.3900
    476      5.6720    -51.7700     26.9650      1.7700     78.3900
    477      4.3420    -51.6470     26.5920      1.6800     78.3900
    478      4.3730    -51.7610     25.2950      1.7700     78.3900
    479      3.5350    -51.6570     24.6200      0.0100     78.3900
    480      6.2790    -53.5640     23.0200      1.7700     78.3900
    481      6.5830    -54.1570     23.9060      0.0100     78.3900
    482      7.3100    -53.5790     22.0530      1.5900     78.3900
    483      7.3810    -54.4910     21.7490      0.0100     78.3900
    484      4.9600    -54.0710     22.4410      1.7700     78.3900
    485      4.2200    -54.2490     23.2560      0.0100     78.3900
    486      5.0900    -55.1850     21.5370      1.5900     78.3900
    487      4.9530    -56.6490     22.0920      2.1000     78.3900
    488      5.3210    -57.5680     20.9920      1.5900     78.3900
    489      3.6040    -56.8190     22.6810      1.5900     78.3900
    490      6.0350    -56.7040     23.2400      1.5900     78.3900
    491      7.4290    -56.8840     22.8910      1.7700     78.3900
    492      7.7880    -56.0860     22.2030      0.0100     78.3900
    493      7.5740    -57.8570     22.3670      0.0100     78.3900
    494      8.3340    -56.9030     24.1330      1.7700     78.3900
    495      9.3990    -56.9950     23.8320      0.0100     78.3900
    496      8.2190    -55.6860     24.9250      1.5900     78.3900
    497      8.4820    -56.0050     26.2940      1.7700     78.3900
    498      9.4160    -55.4510     26.5420      0.0100     78.3900
    499      7.4180    -55.5790     27.2450      1.6800     78.3900
    500      6.1990    -55.1310     26.7940      1.7700     78.3900
    501      6.0740    -55.0870     25.7100      0.0100     78.3900
    502      5.2470    -54.7360     27.6520      1.7700     78.3900
    503      4.3030    -54.3100     27.3250      0.0100     78.3900
    504      7.6780    -55.6150     28.6160      1.7700     78.3900
    505      8.7960    -55.9750     29.0150      1.5900     78.3900
    506      6.7140    -55.2640     29.4910      1.6800     78.3900
    507      5.5310    -54.8140     29.0460      1.7700     78.3900
    508      4.6300    -54.4150     29.9370      1.6800     78.3900
    509      4.8890    -54.4030     30.9060      0.0100     78.3900
    510      3.8310    -53.8800     29.6630      0.0100     78.3900
    511      8.7530    -57.5060     26.3720      1.7700     78.3900
    512      8.3130    -57.9600     27.2850      0.0100     78.3900
    513     10.1480    -57.7590     26.3310      1.5900     78.3900
    514     10.2960    -58.7180     26.2570      0.0100     78.3900
    515      8.0280    -58.0150     25.1310      1.7700     78.3900
    516      6.9300    -58.0250     25.2970      0.0100     78.3900
    517      8.4910    -59.2870     24.6420      1.5900     78.3900
    518      8.3210    -59.9820     25.3020      0.0100     78.3900

     ----------------------------
     INPUT FOR TESSERA DEFINITION
     ----------------------------
     NTSALL  =        60     MTHALL  =         4
     MTHAUT  =         0     AUTFRE  =    2.0000
     NTSFRZ  =        60     KEEPSM  =         0
     AREAKP  =   10.0000     BONDRY  =    1.0000
     AREATL  =    0.0100

     SPHERE     INITS       METHOD
          1        60       FIXPVA
          2        60       FIXPVA
          3        60       FIXPVA
          4        60       FIXPVA
          5        60       FIXPVA
          6        60       FIXPVA
          7        60       FIXPVA
          8        60       FIXPVA
          9        60       FIXPVA
         10        60       FIXPVA
         11        60       FIXPVA
         12        60       FIXPVA
         13        60       FIXPVA
         14        60       FIXPVA
         15        60       FIXPVA
         16        60       FIXPVA
         17        60       FIXPVA
         18        60       FIXPVA
         19        60       FIXPVA
         20        60       FIXPVA
         21        60       FIXPVA
         22        60       FIXPVA
         23        60       FIXPVA
         24        60       FIXPVA
         25        60       FIXPVA
         26        60       FIXPVA
         27        60       FIXPVA
         28        60       FIXPVA
         29        60       FIXPVA
         30        60       FIXPVA
         31        60       FIXPVA
         32        60       FIXPVA
         33        60       FIXPVA
         34        60       FIXPVA
         35        60       FIXPVA
         36        60       FIXPVA
         37        60       FIXPVA
         38        60       FIXPVA
         39        60       FIXPVA
         40        60       FIXPVA
         41        60       FIXPVA
         42        60       FIXPVA
         43        60       FIXPVA
         44        60       FIXPVA
         45        60       FIXPVA
         46        60       FIXPVA
         47        60       FIXPVA
         48        60       FIXPVA
         49        60       FIXPVA
         50        60       FIXPVA
         51        60       FIXPVA
         52        60       FIXPVA
         53        60       FIXPVA
         54        60       FIXPVA
         55        60       FIXPVA
         56        60       FIXPVA
         57        60       FIXPVA
         58        60       FIXPVA
         59        60       FIXPVA
         60        60       FIXPVA
         61        60       FIXPVA
         62        60       FIXPVA
         63        60       FIXPVA
         64        60       FIXPVA
         65        60       FIXPVA
         66        60       FIXPVA
         67        60       FIXPVA
         68        60       FIXPVA
         69        60       FIXPVA
         70        60       FIXPVA
         71        60       FIXPVA
         72        60       FIXPVA
         73        60       FIXPVA
         74        60       FIXPVA
         75        60       FIXPVA
         76        60       FIXPVA
         77        60       FIXPVA
         78        60       FIXPVA
         79        60       FIXPVA
         80        60       FIXPVA
         81        60       FIXPVA
         82        60       FIXPVA
         83        60       FIXPVA
         84        60       FIXPVA
         85        60       FIXPVA
         86        60       FIXPVA
         87        60       FIXPVA
         88        60       FIXPVA
         89        60       FIXPVA
         90        60       FIXPVA
         91        60       FIXPVA
         92        60       FIXPVA
         93        60       FIXPVA
         94        60       FIXPVA
         95        60       FIXPVA
         96        60       FIXPVA
         97        60       FIXPVA
         98        60       FIXPVA
         99        60       FIXPVA
        100        60       FIXPVA
        101        60       FIXPVA
        102        60       FIXPVA
        103        60       FIXPVA
        104        60       FIXPVA
        105        60       FIXPVA
        106        60       FIXPVA
        107        60       FIXPVA
        108        60       FIXPVA
        109        60       FIXPVA
        110        60       FIXPVA
        111        60       FIXPVA
        112        60       FIXPVA
        113        60       FIXPVA
        114        60       FIXPVA
        115        60       FIXPVA
        116        60       FIXPVA
        117        60       FIXPVA
        118        60       FIXPVA
        119        60       FIXPVA
        120        60       FIXPVA
        121        60       FIXPVA
        122        60       FIXPVA
        123        60       FIXPVA
        124        60       FIXPVA
        125        60       FIXPVA
        126        60       FIXPVA
        127        60       FIXPVA
        128        60       FIXPVA
        129        60       FIXPVA
        130        60       FIXPVA
        131        60       FIXPVA
        132        60       FIXPVA
        133        60       FIXPVA
        134        60       FIXPVA
        135        60       FIXPVA
        136        60       FIXPVA
        137        60       FIXPVA
        138        60       FIXPVA
        139        60       FIXPVA
        140        60       FIXPVA
        141        60       FIXPVA
        142        60       FIXPVA
        143        60       FIXPVA
        144        60       FIXPVA
        145        60       FIXPVA
        146        60       FIXPVA
        147        60       FIXPVA
        148        60       FIXPVA
        149        60       FIXPVA
        150        60       FIXPVA
        151        60       FIXPVA
        152        60       FIXPVA
        153        60       FIXPVA
        154        60       FIXPVA
        155        60       FIXPVA
        156        60       FIXPVA
        157        60       FIXPVA
        158        60       FIXPVA
        159        60       FIXPVA
        160        60       FIXPVA
        161        60       FIXPVA
        162        60       FIXPVA
        163        60       FIXPVA
        164        60       FIXPVA
        165        60       FIXPVA
        166        60       FIXPVA
        167        60       FIXPVA
        168        60       FIXPVA
        169        60       FIXPVA
        170        60       FIXPVA
        171        60       FIXPVA
        172        60       FIXPVA
        173        60       FIXPVA
        174        60       FIXPVA
        175        60       FIXPVA
        176        60       FIXPVA
        177        60       FIXPVA
        178        60       FIXPVA
        179        60       FIXPVA
        180        60       FIXPVA
        181        60       FIXPVA
        182        60       FIXPVA
        183        60       FIXPVA
        184        60       FIXPVA
        185        60       FIXPVA
        186        60       FIXPVA
        187        60       FIXPVA
        188        60       FIXPVA
        189        60       FIXPVA
        190        60       FIXPVA
        191        60       FIXPVA
        192        60       FIXPVA
        193        60       FIXPVA
        194        60       FIXPVA
        195        60       FIXPVA
        196        60       FIXPVA
        197        60       FIXPVA
        198        60       FIXPVA
        199        60       FIXPVA
        200        60       FIXPVA
        201        60       FIXPVA
        202        60       FIXPVA
        203        60       FIXPVA
        204        60       FIXPVA
        205        60       FIXPVA
        206        60       FIXPVA
        207        60       FIXPVA
        208        60       FIXPVA
        209        60       FIXPVA
        210        60       FIXPVA
        211        60       FIXPVA
        212        60       FIXPVA
        213        60       FIXPVA
        214        60       FIXPVA
        215        60       FIXPVA
        216        60       FIXPVA
        217        60       FIXPVA
        218        60       FIXPVA
        219        60       FIXPVA
        220        60       FIXPVA
        221        60       FIXPVA
        222        60       FIXPVA
        223        60       FIXPVA
        224        60       FIXPVA
        225        60       FIXPVA
        226        60       FIXPVA
        227        60       FIXPVA
        228        60       FIXPVA
        229        60       FIXPVA
        230        60       FIXPVA
        231        60       FIXPVA
        232        60       FIXPVA
        233        60       FIXPVA
        234        60       FIXPVA
        235        60       FIXPVA
        236        60       FIXPVA
        237        60       FIXPVA
        238        60       FIXPVA
        239        60       FIXPVA
        240        60       FIXPVA
        241        60       FIXPVA
        242        60       FIXPVA
        243        60       FIXPVA
        244        60       FIXPVA
        245        60       FIXPVA
        246        60       FIXPVA
        247        60       FIXPVA
        248        60       FIXPVA
        249        60       FIXPVA
        250        60       FIXPVA
        251        60       FIXPVA
        252        60       FIXPVA
        253        60       FIXPVA
        254        60       FIXPVA
        255        60       FIXPVA
        256        60       FIXPVA
        257        60       FIXPVA
        258        60       FIXPVA
        259        60       FIXPVA
        260        60       FIXPVA
        261        60       FIXPVA
        262        60       FIXPVA
        263        60       FIXPVA
        264        60       FIXPVA
        265        60       FIXPVA
        266        60       FIXPVA
        267        60       FIXPVA
        268        60       FIXPVA
        269        60       FIXPVA
        270        60       FIXPVA
        271        60       FIXPVA
        272        60       FIXPVA
        273        60       FIXPVA
        274        60       FIXPVA
        275        60       FIXPVA
        276        60       FIXPVA
        277        60       FIXPVA
        278        60       FIXPVA
        279        60       FIXPVA
        280        60       FIXPVA
        281        60       FIXPVA
        282        60       FIXPVA
        283        60       FIXPVA
        284        60       FIXPVA
        285        60       FIXPVA
        286        60       FIXPVA
        287        60       FIXPVA
        288        60       FIXPVA
        289        60       FIXPVA
        290        60       FIXPVA
        291        60       FIXPVA
        292        60       FIXPVA
        293        60       FIXPVA
        294        60       FIXPVA
        295        60       FIXPVA
        296        60       FIXPVA
        297        60       FIXPVA
        298        60       FIXPVA
        299        60       FIXPVA
        300        60       FIXPVA
        301        60       FIXPVA
        302        60       FIXPVA
        303        60       FIXPVA
        304        60       FIXPVA
        305        60       FIXPVA
        306        60       FIXPVA
        307        60       FIXPVA
        308        60       FIXPVA
        309        60       FIXPVA
        310        60       FIXPVA
        311        60       FIXPVA
        312        60       FIXPVA
        313        60       FIXPVA
        314        60       FIXPVA
        315        60       FIXPVA
        316        60       FIXPVA
        317        60       FIXPVA
        318        60       FIXPVA
        319        60       FIXPVA
        320        60       FIXPVA
        321        60       FIXPVA
        322        60       FIXPVA
        323        60       FIXPVA
        324        60       FIXPVA
        325        60       FIXPVA
        326        60       FIXPVA
        327        60       FIXPVA
        328        60       FIXPVA
        329        60       FIXPVA
        330        60       FIXPVA
        331        60       FIXPVA
        332        60       FIXPVA
        333        60       FIXPVA
        334        60       FIXPVA
        335        60       FIXPVA
        336        60       FIXPVA
        337        60       FIXPVA
        338        60       FIXPVA
        339        60       FIXPVA
        340        60       FIXPVA
        341        60       FIXPVA
        342        60       FIXPVA
        343        60       FIXPVA
        344        60       FIXPVA
        345        60       FIXPVA
        346        60       FIXPVA
        347        60       FIXPVA
        348        60       FIXPVA
        349        60       FIXPVA
        350        60       FIXPVA
        351        60       FIXPVA
        352        60       FIXPVA
        353        60       FIXPVA
        354        60       FIXPVA
        355        60       FIXPVA
        356        60       FIXPVA
        357        60       FIXPVA
        358        60       FIXPVA
        359        60       FIXPVA
        360        60       FIXPVA
        361        60       FIXPVA
        362        60       FIXPVA
        363        60       FIXPVA
        364        60       FIXPVA
        365        60       FIXPVA
        366        60       FIXPVA
        367        60       FIXPVA
        368        60       FIXPVA
        369        60       FIXPVA
        370        60       FIXPVA
        371        60       FIXPVA
        372        60       FIXPVA
        373        60       FIXPVA
        374        60       FIXPVA
        375        60       FIXPVA
        376        60       FIXPVA
        377        60       FIXPVA
        378        60       FIXPVA
        379        60       FIXPVA
        380        60       FIXPVA
        381        60       FIXPVA
        382        60       FIXPVA
        383        60       FIXPVA
        384        60       FIXPVA
        385        60       FIXPVA
        386        60       FIXPVA
        387        60       FIXPVA
        388        60       FIXPVA
        389        60       FIXPVA
        390        60       FIXPVA
        391        60       FIXPVA
        392        60       FIXPVA
        393        60       FIXPVA
        394        60       FIXPVA
        395        60       FIXPVA
        396        60       FIXPVA
        397        60       FIXPVA
        398        60       FIXPVA
        399        60       FIXPVA
        400        60       FIXPVA
        401        60       FIXPVA
        402        60       FIXPVA
        403        60       FIXPVA
        404        60       FIXPVA
        405        60       FIXPVA
        406        60       FIXPVA
        407        60       FIXPVA
        408        60       FIXPVA
        409        60       FIXPVA
        410        60       FIXPVA
        411        60       FIXPVA
        412        60       FIXPVA
        413        60       FIXPVA
        414        60       FIXPVA
        415        60       FIXPVA
        416        60       FIXPVA
        417        60       FIXPVA
        418        60       FIXPVA
        419        60       FIXPVA
        420        60       FIXPVA
        421        60       FIXPVA
        422        60       FIXPVA
        423        60       FIXPVA
        424        60       FIXPVA
        425        60       FIXPVA
        426        60       FIXPVA
        427        60       FIXPVA
        428        60       FIXPVA
        429        60       FIXPVA
        430        60       FIXPVA
        431        60       FIXPVA
        432        60       FIXPVA
        433        60       FIXPVA
        434        60       FIXPVA
        435        60       FIXPVA
        436        60       FIXPVA
        437        60       FIXPVA
        438        60       FIXPVA
        439        60       FIXPVA
        440        60       FIXPVA
        441        60       FIXPVA
        442        60       FIXPVA
        443        60       FIXPVA
        444        60       FIXPVA
        445        60       FIXPVA
        446        60       FIXPVA
        447        60       FIXPVA
        448        60       FIXPVA
        449        60       FIXPVA
        450        60       FIXPVA
        451        60       FIXPVA
        452        60       FIXPVA
        453        60       FIXPVA
        454        60       FIXPVA
        455        60       FIXPVA
        456        60       FIXPVA
        457        60       FIXPVA
        458        60       FIXPVA
        459        60       FIXPVA
        460        60       FIXPVA
        461        60       FIXPVA
        462        60       FIXPVA
        463        60       FIXPVA
        464        60       FIXPVA
        465        60       FIXPVA
        466        60       FIXPVA
        467        60       FIXPVA
        468        60       FIXPVA
        469        60       FIXPVA
        470        60       FIXPVA
        471        60       FIXPVA
        472        60       FIXPVA
        473        60       FIXPVA
        474        60       FIXPVA
        475        60       FIXPVA
        476        60       FIXPVA
        477        60       FIXPVA
        478        60       FIXPVA
        479        60       FIXPVA
        480        60       FIXPVA
        481        60       FIXPVA
        482        60       FIXPVA
        483        60       FIXPVA
        484        60       FIXPVA
        485        60       FIXPVA
        486        60       FIXPVA
        487        60       FIXPVA
        488        60       FIXPVA
        489        60       FIXPVA
        490        60       FIXPVA
        491        60       FIXPVA
        492        60       FIXPVA
        493        60       FIXPVA
        494        60       FIXPVA
        495        60       FIXPVA
        496        60       FIXPVA
        497        60       FIXPVA
        498        60       FIXPVA
        499        60       FIXPVA
        500        60       FIXPVA
        501        60       FIXPVA
        502        60       FIXPVA
        503        60       FIXPVA
        504        60       FIXPVA
        505        60       FIXPVA
        506        60       FIXPVA
        507        60       FIXPVA
        508        60       FIXPVA
        509        60       FIXPVA
        510        60       FIXPVA
        511        60       FIXPVA
        512        60       FIXPVA
        513        60       FIXPVA
        514        60       FIXPVA
        515        60       FIXPVA
        516        60       FIXPVA
        517        60       FIXPVA
        518        60       FIXPVA

     ------------------------------
      FIXPVA TESSELLATION FOR PCM
         PEIFENG SU AND HUI LI
     UNIVERSITY OF NEBRASKA-LINCOLN
     ------------------------------


 PCM DIMENSIONS: MXSP=   518, MXTS=     20720, MEMORY=        212901

     INPUT FOR CAVITY DEFINITION 
     ---------------------------
   ATOM               COORDINATES                RADIUS       EPS
      1      7.6760    -53.2330     40.6990      0.0100     78.3900
      2      8.0950    -53.4270     39.8350      1.5900     78.3900
      3      9.4610    -53.7700     40.1170      1.7700     78.3900
      4      9.4790    -54.6440     40.8060      0.0100     78.3900
      5      9.9610    -52.9190     40.6310      0.0100     78.3900
      6     10.2570    -54.1290     38.8610      1.7700     78.3900
      7     11.2890    -54.4440     39.1330      0.0100     78.3900
      8      9.6190    -55.2530     38.1800      1.5900     78.3900
      9      9.7770    -55.0920     36.7840      1.7700     78.3900
     10     10.2970    -56.0020     36.4080      0.0100     78.3900
     11      8.4960    -54.9240     36.0830      1.6800     78.3900
     12      8.2980    -55.2080     34.7590      1.7700     78.3900
     13      9.6150    -56.0750     31.6750      1.6800     78.3900
     14     10.5510    -56.3380     31.8970      0.0100     78.3900
     15      9.3390    -56.0110     30.7110      0.0100     78.3900
     16      9.2270    -55.6920     33.9150      1.6800     78.3900
     17      8.8180    -55.6820     32.6510      1.7700     78.3900
     18      7.5520    -55.3200     32.2800      1.6800     78.3900
     19      7.3310    -55.3050     31.2960      0.0100     78.3900
     20      6.5480    -54.8900     33.1360      1.7700     78.3900
     21      5.4330    -54.6050     32.6900      1.5900     78.3900
     22      6.9980    -54.8300     34.4870      1.7700     78.3900
     23      6.3780    -54.3200     35.6330      1.6800     78.3900
     24      7.3190    -54.3790     36.5530      1.7700     78.3900
     25      7.2120    -54.0680     37.5960      0.0100     78.3900
     26     10.6480    -53.8820     36.5610      1.7700     78.3900
     27     10.3520    -53.3350     35.6480      0.0100     78.3900
     28     12.0170    -54.2380     36.4950      1.5900     78.3900
     29     12.4970    -53.4150     36.3400      0.0100     78.3900
     30     10.3490    -53.0290     37.7840      1.7700     78.3900
     31      9.3400    -52.5610     37.7090      0.0100     78.3900
     32     11.3800    -52.0660     38.1000      1.5900     78.3900
     33     11.4160    -50.6690     37.3540      2.1000     78.3900
     34     12.6680    -49.9670     37.7130      1.5900     78.3900
     35     10.1510    -49.9650     37.6440      1.5900     78.3900
     36     11.4410    -50.9910     35.8120      1.5900     78.3900
     37     12.6670    -51.2630     35.0980      1.7700     78.3900
     38     13.2920    -52.0070     35.6470      0.0100     78.3900
     39     13.2710    -50.3310     35.0050      0.0100     78.3900
     40     12.4340    -51.8250     33.6750      1.7700     78.3900
     41     13.3670    -52.3130     33.3250      0.0100     78.3900
     42     11.3860    -52.8330     33.6500      1.5900     78.3900
     43     10.6200    -52.7010     32.4650      1.7700     78.3900
     44     10.5810    -53.7210     32.0230      0.0100     78.3900
     45      9.2370    -52.2110     32.7080      1.6800     78.3900
     46      8.8210    -51.7610     33.9400      1.7700     78.3900
     47      9.5900    -51.7200     34.7080      0.0100     78.3900
     48      8.3560    -52.2960     31.6550      1.7700     78.3900
     49      8.6940    -52.7520     30.5710      1.5900     78.3900
     50      7.0770    -51.8800     31.9230      1.6800     78.3900
     51      6.4250    -51.8570     31.1480      0.0100     78.3900
     52      6.5650    -51.5810     33.1700      1.7700     78.3900
     53      5.3570    -51.4920     33.3510      1.5900     78.3900
     54      7.5440    -51.4510     34.2050      1.7700     78.3900
     55      7.1920    -51.1970     35.2070      0.0100     78.3900
     56     11.4050    -51.7980     31.5570      1.7700     78.3900
     57     10.7730    -51.2590     30.8220      0.0100     78.3900
     58     12.3520    -52.6070     30.8840      1.5900     78.3900
     59     12.9880    -52.9460     31.5280      0.0100     78.3900
     60     12.0150    -50.8340     32.5890      1.7700     78.3900
     61     11.2160    -50.1960     33.0270      0.0100     78.3900
     62     13.1390    -50.0270     32.2110      1.5900     78.3900
     63     13.5220    -49.5650     30.7640      2.1000     78.3900
     64     14.1520    -50.6920     30.0450      1.5900     78.3900
     65     14.3560    -48.3480     30.8680      1.5900     78.3900
     66     12.1340    -49.1890     30.1200      1.5900     78.3900
     67     11.8130    -49.5740     28.7640      1.7700     78.3900
     68     11.8460    -50.6810     28.6340      0.0100     78.3900
     69     12.5460    -49.1150     28.0610      0.0100     78.3900
     70     10.4240    -49.0600     28.3610      1.7700     78.3900
     71     10.2360    -49.2220     27.2790      0.0100     78.3900
     72      9.3650    -49.7400     29.0900      1.5900     78.3900
     73      8.2680    -48.8350     29.2780      1.7700     78.3900
[...]
   466   15   6.0   0.00    0.0    0.000000    0.685735    0.684088
   467   15   7.0  13.21   25.9   -0.136766   -0.980830   -0.998816
   468   15   1.0   0.00    0.0    0.000000    0.435521    0.436987
   469   15   1.0   0.00    0.0    0.000000    0.452413    0.451551
   470   15   7.0   4.20    8.2    0.074602   -0.737464   -0.743549
   471   15   6.0   0.00    0.0    0.000106    0.992198    0.991524
   472   15   7.0   0.00    0.0    0.000000   -0.895112   -0.979790
   473   15   1.0   0.00    0.0    0.000000    0.449702    0.516054
   474   15   6.0   0.00    0.0    0.000000    0.840025    0.857630
   475   15   8.0   1.51    3.3    0.066162   -0.712017   -0.704110
   476   15   6.0   0.00    0.0    0.000302   -0.033246   -0.016971
   477   15   7.0   4.07    8.0    0.094946   -0.555396   -0.564317
   478   15   6.0   3.27    5.8    0.000243    0.311541    0.279669
   479   15   1.0   0.00    0.0    0.000000    0.185096    0.244980
   480   15   6.0   0.00    0.0   -0.000094    0.109833    0.082562
   481   15   1.0   0.00    0.0    0.000000    0.213909    0.250326
   482   15   8.0  17.67   38.6    0.070086   -0.833563   -0.851264
   483   15   1.0   0.00    0.0    0.000000    0.503337    0.525213
   484   15   6.0   1.56    2.7   -0.017482    0.160156    0.129688
   485   15   1.0   0.00    0.0    0.000000    0.238214    0.238060
   486   15   8.0   4.38    9.6    0.069640   -0.784510   -0.788569
   487   15  15.0   8.93   11.2    0.136485    1.599723    1.628908
   488   15   8.0  16.13   35.2    0.330435   -0.897075   -0.891043
   489   15   8.0  14.80   32.3    0.344929   -0.893817   -0.886568
   490   15   8.0   1.60    3.5    0.033967   -0.972134   -0.783271
   491   16   6.0   9.83   17.3   -0.066160    0.202196   -0.032019
   492   16   1.0   0.00    0.0    0.000000    0.148761    0.167499
   493   16   1.0   0.00    0.0    0.000000    0.247993    0.230456
   494   16   6.0   6.45   11.4   -0.042713    0.108732    0.164753
   495   16   1.0   0.00    0.0    0.000000    0.241979    0.217373
   496   16   8.0   2.65    5.8    0.038147   -0.732310   -0.741267
   497   16   6.0   3.56    6.3   -0.027056    0.456776    0.450022
   498   16   1.0   0.00    0.0    0.000000    0.239971    0.248962
   499   16   7.0   0.01    0.0   -0.000246   -0.838309   -0.842326
   500   16   6.0   3.91    6.9   -0.011061    0.207949    0.190838
   501   16   1.0   0.00    0.0    0.000000    0.276483    0.300714
   502   16   6.0   9.46   16.7   -0.036526   -0.389818   -0.407343
   503   16   1.0   0.00    0.0    0.000000    0.274429    0.278712
   504   16   6.0   2.04    3.6    0.000559    1.078727    1.082289
   505   16   8.0   7.63   16.7    0.131128   -0.804475   -0.768005
   506   16   7.0   1.77    3.5    0.025601   -0.858274   -0.854544
   507   16   6.0   1.91    3.4   -0.000919    0.725489    0.730052
   508   16   7.0  15.03   29.4   -0.060334   -0.940828   -0.996055
   509   16   1.0   0.00    0.0    0.000000    0.459283    0.499021
   510   16   1.0   0.00    0.0    0.000000    0.444534    0.438729
   511   16   6.0   7.31   12.9   -0.060685    0.106138    0.105743
   512   16   1.0   0.00    0.0    0.000000    0.226201    0.222496
   513   16   8.0  19.91   43.5    0.050052   -0.837282   -0.836850
   514   16   1.0   0.00    0.0    0.000000    0.498395    0.498387
   515   16   6.0   7.29   12.9   -0.055689    0.173181    0.161401
   516   16   1.0   0.00    0.0    0.000000    0.212660    0.213727
   517   16   8.0  23.34   51.0   -0.012576   -0.850792   -0.854085
   518   16   1.0   0.00    0.0    0.000000    0.507214    0.506137

 Done with FMO properties.
 CPU     0: STEP CPU TIME=     0.00 TOTAL CPU TIME=      39792.1 (    663.2 MIN)
 TOTAL WALL CLOCK TIME=      88799.1 SECONDS, CPU UTILIZATION IS    44.81%
 CPU     0: STEP CPU TIME=     0.00 TOTAL CPU TIME=      39792.1 (    663.2 MIN)
 TOTAL WALL CLOCK TIME=      88799.1 SECONDS, CPU UTILIZATION IS    44.81%

 Total timing statistics in pairs (CPU,wall) for each rank, sec

    Rank   total     SCF    corr     DFT    CPHF     EFP    solv     ESP    geom
 -------------------------------------------------------------------------------
       1   39792.1   9664.4  15033.0      0.0    0.0   0.0  339.9 14016.7    0.0
       1   88799.2  20093.8  38015.7      0.0    0.0   0.0  806.8 28229.4    0.0
       2   39615.7   9597.5  14965.0      0.0    0.0   0.0  341.0 13981.1    0.0
       2   88799.2  20040.8  38026.9      0.0    0.0   0.0  806.7 28227.9    0.0
       3   39609.5   9616.2  14914.2      0.0    0.0   0.0  343.9 14001.2    0.0
       3   88799.2  20040.3  38026.8      0.0    0.0   0.0  807.3 28228.3    0.0
       4   39660.3   9593.6  15026.8      0.0    0.0   0.0  342.6 13965.7    0.0
       4   88799.2  20041.0  38026.8      0.0    0.0   0.0  805.3 28228.0    0.0
       5   39788.0   9626.8  15051.1      0.0    0.0   0.0  342.3 14032.4    0.0
       5   88799.2  20041.2  38026.8      0.0    0.0   0.0  806.6 28228.8    0.0
       6   39769.8   9591.9  15112.5      0.0    0.0   0.0  339.6 13995.7    0.0
       6   88799.2  20042.1  38026.8      0.0    0.0   0.0  804.4 28228.7    0.0
       7   39705.4   9612.2  15037.2      0.0    0.0   0.0  339.5 13985.7    0.0
       7   88799.2  20042.2  38026.7      0.0    0.0   0.0  805.3 28228.7    0.0
       8   39796.4   9574.7  15191.4      0.0    0.0   0.0  337.0 13967.2    0.0
       8   88799.2  20041.9  38026.7      0.0    0.0   0.0  803.4 28228.7    0.0
       9   39837.2   9619.1  15120.5      0.0    0.0   0.0  335.4 14028.9    0.0
       9   88799.2  20042.0  38026.8      0.0    0.0   0.0  805.4 28229.1    0.0
      10   39842.9   9568.9  15215.8      0.0    0.0   0.0  337.5 13993.6    0.0
      10   88799.2  20041.8  38026.8      0.0    0.0   0.0  804.1 28229.0    0.0
      11   39821.0   9593.6  15187.2      0.0    0.0   0.0  335.8 13977.1    0.0
      11   88799.2  20042.9  38026.8      0.0    0.0   0.0  804.2 28229.0    0.0
      12   39686.6   9573.5  15087.6      0.0    0.0   0.0  335.5 13965.2    0.0
      12   88799.2  20042.1  38026.8      0.0    0.0   0.0  802.9 28229.0    0.0
      13   39815.1   9601.4  15189.1      0.0    0.0   0.0  334.5 13961.9    0.0
      13   88799.2  20043.2  38026.7      0.0    0.0   0.0  804.0 28229.0    0.0
      14   39736.0   9564.3  15149.9      0.0    0.0   0.0  337.3 13959.9    0.0
      14   88799.2  20042.0  38026.7      0.0    0.0   0.0  803.1 28229.0    0.0
      15   39643.2   9573.1  15063.2      0.0    0.0   0.0  334.5 13946.0    0.0
      15   88799.2  20041.9  38026.7      0.0    0.0   0.0  802.9 28229.0    0.0
      16   39596.3   9564.3  15031.6      0.0    0.0   0.0  334.9 13940.6    0.0
      16   88799.2  20041.7  38026.7      0.0    0.0   0.0  801.8 28229.0    0.0
averaged   39732.2   9596.0  15086.0      0.0    0.0   0.0  338.2 13982.4    0.0
averaged   88799.2  20045.1  38026.1      0.0    0.0   0.0  804.6 28228.8    0.0

  FMO  timing statistics in pairs (CPU,wall) for each rank, sec

    Rank  FMOini FMOscf1  FMOdm1 FMOsyn1 FMOscf2  FMOes2 FMOsyn2 FMOscf3 FMOsyn3
 -------------------------------------------------------------------------------
       1    3.3   13477.3    0.5    0.0   25772.6     538.3    0.0    0.0    0.0
       1    8.1   27534.0    2.6    0.0   60166.8    1087.3    0.0    0.0    0.0
       2    2.5   13423.2    0.2    0.0   25652.6     537.2    0.0    0.0    0.0
       2    8.1   27534.0    2.6    0.0   60162.1    1092.0    0.0    0.0    0.0
       3    2.8   13446.1    0.2    0.0   25622.3     538.1    0.0    0.0    0.0
       3    8.1   27534.0    2.6    0.0   60162.9    1091.2    0.0    0.0    0.0
       4    2.5   13410.0    0.1    0.0   25711.3     536.4    0.0    0.0    0.0
       4    8.1   27534.0    2.6    0.0   60161.5    1092.6    0.0    0.0    0.0
       5    3.0   13458.4    0.3    0.0   25787.4     538.9    0.0    0.0    0.0
       5    8.1   27534.0    2.6    0.0   60164.3    1089.8    0.0    0.0    0.0
       6    2.6   13424.1    0.1    0.0   25804.8     538.2    0.0    0.0    0.0
       6    8.1   27534.0    2.6    0.0   60164.3    1089.8    0.0    0.0    0.0
       7    2.7   13442.2    0.2    0.0   25723.5     536.8    0.0    0.0    0.0
       7    8.1   27534.0    2.6    0.0   60161.8    1092.3    0.0    0.0    0.0
       8    2.4   13403.3    0.1    0.0   25853.5     537.2    0.0    0.0    0.0
       8    8.1   27534.0    2.6    0.0   60163.4    1090.7    0.0    0.0    0.0
       9    2.9   13439.8    0.4    0.0   25855.2     539.0    0.0    0.0    0.0
       9    8.1   27534.0    2.6    0.0   60162.7    1091.3    0.0    0.0    0.0
      10    2.4   13404.4    0.1    0.0   25899.3     536.6    0.0    0.0    0.0
      10    8.1   27534.0    2.6    0.0   60163.6    1090.4    0.0    0.0    0.0
      11    2.5   13419.5    0.2    0.0   25862.5     536.2    0.0    0.0    0.0
      11    8.1   27534.0    2.6    0.0   60162.4    1091.7    0.0    0.0    0.0
      12    2.2   13395.8    0.1    0.0   25752.4     536.0    0.0    0.0    0.0
      12    8.1   27534.0    2.6    0.0   60162.9    1091.2    0.0    0.0    0.0
      13    2.7   13396.5    0.3    0.0   25879.0     536.8    0.0    0.0    0.0
      13    8.1   27534.0    2.6    0.0   60164.7    1089.3    0.0    0.0    0.0
      14    2.2   13394.4    0.1    0.0   25803.8     535.4    0.0    0.0    0.0
      14    8.1   27534.0    2.6    0.0   60162.7    1091.4    0.0    0.0    0.0
      15    2.5   13369.0    0.2    0.0   25734.6     536.9    0.0    0.0    0.0
      15    8.1   27534.0    2.6    0.0   60161.3    1092.8    0.0    0.0    0.0
      16    2.3   13378.3    0.1    0.0   25680.0     535.6    0.0    0.0    0.0
      16    8.1   27534.0    2.6    0.0   60165.1    1088.9    0.0    0.0    0.0
averaged    2.6   13417.6    0.2    0.0   25774.7     537.1    0.0    0.0    0.0
averaged    8.1   27534.0    2.6    0.0   60163.3    1090.8    0.0    0.0    0.0
             62801624  WORDS OF DYNAMIC MEMORY USED
 EXECUTION OF GAMESS TERMINATED NORMALLY Sun Dec  8 09:08:51 2019
 DDI: 263640 bytes (0.3 MB / 0 MWords) used by master data server.

 ----------------------------------------
 CPU timing information for all processes
 ========================================
 0: 38895.829 + 896.246 = 39792.75
 1: 38795.39 + 820.654 = 39615.693
 2: 38774.243 + 835.318 = 39609.562
 3: 38830.72 + 830.240 = 39660.312
 4: 38948.589 + 839.414 = 39788.04
 5: 38951.82 + 818.761 = 39769.844
 6: 38867.591 + 837.867 = 39705.458
 7: 38968.979 + 827.467 = 39796.447
 8: 38968.106 + 869.133 = 39837.239
 9: 39009.199 + 833.673 = 39842.872
 10: 38989.308 + 831.735 = 39821.43
 11: 38883.606 + 802.991 = 39686.597
 12: 38949.636 + 865.528 = 39815.164
 13: 38911.620 + 824.417 = 39736.37
 14: 38800.356 + 842.903 = 39643.259
 15: 38798.381 + 797.941 = 39596.322
 ----------------------------------------
 ddikick.x: exited gracefully.
unset echo
----- accounting info -----
Files used on the master node gollum085.lsa.umich.edu were:
-rw-r--r-- 1 hazwong frank    25660 Dec  7 08:28 /scratch/hazwong/824322/28SR_6/usrc/28SR_6_fmo_input.F05
-rw-r--r-- 1 hazwong frank      634 Dec  8 09:08 /scratch/hazwong/824322/28SR_6/usrc/28SR_6_fmo_input.F06.001
-rw-r--r-- 1 hazwong frank      634 Dec  8 09:08 /scratch/hazwong/824322/28SR_6/usrc/28SR_6_fmo_input.F06.002
-rw-r--r-- 1 hazwong frank      634 Dec  8 09:08 /scratch/hazwong/824322/28SR_6/usrc/28SR_6_fmo_input.F06.003
-rw-r--r-- 1 hazwong frank      634 Dec  8 09:08 /scratch/hazwong/824322/28SR_6/usrc/28SR_6_fmo_input.F06.004
-rw-r--r-- 1 hazwong frank      634 Dec  8 09:08 /scratch/hazwong/824322/28SR_6/usrc/28SR_6_fmo_input.F06.005
-rw-r--r-- 1 hazwong frank      634 Dec  8 09:08 /scratch/hazwong/824322/28SR_6/usrc/28SR_6_fmo_input.F06.006
-rw-r--r-- 1 hazwong frank      634 Dec  8 09:08 /scratch/hazwong/824322/28SR_6/usrc/28SR_6_fmo_input.F06.007
-rw-r--r-- 1 hazwong frank      634 Dec  8 09:08 /scratch/hazwong/824322/28SR_6/usrc/28SR_6_fmo_input.F06.008
-rw-r--r-- 1 hazwong frank      634 Dec  8 09:08 /scratch/hazwong/824322/28SR_6/usrc/28SR_6_fmo_input.F06.009
-rw-r--r-- 1 hazwong frank      634 Dec  8 09:08 /scratch/hazwong/824322/28SR_6/usrc/28SR_6_fmo_input.F06.010
-rw-r--r-- 1 hazwong frank      634 Dec  8 09:08 /scratch/hazwong/824322/28SR_6/usrc/28SR_6_fmo_input.F06.011
-rw-r--r-- 1 hazwong frank      634 Dec  8 09:08 /scratch/hazwong/824322/28SR_6/usrc/28SR_6_fmo_input.F06.012
-rw-r--r-- 1 hazwong frank      634 Dec  8 09:08 /scratch/hazwong/824322/28SR_6/usrc/28SR_6_fmo_input.F06.013
-rw-r--r-- 1 hazwong frank      634 Dec  8 09:08 /scratch/hazwong/824322/28SR_6/usrc/28SR_6_fmo_input.F06.014
-rw-r--r-- 1 hazwong frank      634 Dec  8 09:08 /scratch/hazwong/824322/28SR_6/usrc/28SR_6_fmo_input.F06.015
-rw-r--r-- 1 hazwong frank    21906 Dec  8 09:08 /scratch/hazwong/824322/28SR_6/usrc/28SR_6_fmo_input.F07
-rw-r--r-- 1 hazwong frank        0 Dec  7 08:28 /scratch/hazwong/824322/28SR_6/usrc/28SR_6_fmo_input.F07.001
-rw-r--r-- 1 hazwong frank        0 Dec  7 08:28 /scratch/hazwong/824322/28SR_6/usrc/28SR_6_fmo_input.F07.002
-rw-r--r-- 1 hazwong frank        0 Dec  7 08:28 /scratch/hazwong/824322/28SR_6/usrc/28SR_6_fmo_input.F07.003
-rw-r--r-- 1 hazwong frank        0 Dec  7 08:28 /scratch/hazwong/824322/28SR_6/usrc/28SR_6_fmo_input.F07.004
-rw-r--r-- 1 hazwong frank        0 Dec  7 08:28 /scratch/hazwong/824322/28SR_6/usrc/28SR_6_fmo_input.F07.005
-rw-r--r-- 1 hazwong frank        0 Dec  7 08:28 /scratch/hazwong/824322/28SR_6/usrc/28SR_6_fmo_input.F07.006
-rw-r--r-- 1 hazwong frank        0 Dec  7 08:28 /scratch/hazwong/824322/28SR_6/usrc/28SR_6_fmo_input.F07.007
-rw-r--r-- 1 hazwong frank        0 Dec  7 08:28 /scratch/hazwong/824322/28SR_6/usrc/28SR_6_fmo_input.F07.008
-rw-r--r-- 1 hazwong frank        0 Dec  7 08:28 /scratch/hazwong/824322/28SR_6/usrc/28SR_6_fmo_input.F07.009
-rw-r--r-- 1 hazwong frank        0 Dec  7 08:28 /scratch/hazwong/824322/28SR_6/usrc/28SR_6_fmo_input.F07.010
-rw-r--r-- 1 hazwong frank        0 Dec  7 08:28 /scratch/hazwong/824322/28SR_6/usrc/28SR_6_fmo_input.F07.011
-rw-r--r-- 1 hazwong frank        0 Dec  7 08:28 /scratch/hazwong/824322/28SR_6/usrc/28SR_6_fmo_input.F07.012
-rw-r--r-- 1 hazwong frank        0 Dec  7 08:28 /scratch/hazwong/824322/28SR_6/usrc/28SR_6_fmo_input.F07.013
-rw-r--r-- 1 hazwong frank        0 Dec  7 08:28 /scratch/hazwong/824322/28SR_6/usrc/28SR_6_fmo_input.F07.014
-rw-r--r-- 1 hazwong frank        0 Dec  7 08:28 /scratch/hazwong/824322/28SR_6/usrc/28SR_6_fmo_input.F07.015
-rw-r--r-- 1 hazwong frank    65440 Dec  8 09:08 /scratch/hazwong/824322/28SR_6/usrc/28SR_6_fmo_input.F10.000
-rw-r--r-- 1 hazwong frank        0 Dec  7 08:28 /scratch/hazwong/824322/28SR_6/usrc/28SR_6_fmo_input.F26.000
-rw-r--r-- 1 hazwong frank        0 Dec  7 08:28 /scratch/hazwong/824322/28SR_6/usrc/28SR_6_fmo_input.F26.001
-rw-r--r-- 1 hazwong frank        0 Dec  7 08:28 /scratch/hazwong/824322/28SR_6/usrc/28SR_6_fmo_input.F26.002
-rw-r--r-- 1 hazwong frank        0 Dec  7 08:28 /scratch/hazwong/824322/28SR_6/usrc/28SR_6_fmo_input.F26.003
-rw-r--r-- 1 hazwong frank        0 Dec  7 08:28 /scratch/hazwong/824322/28SR_6/usrc/28SR_6_fmo_input.F26.004
-rw-r--r-- 1 hazwong frank        0 Dec  7 08:28 /scratch/hazwong/824322/28SR_6/usrc/28SR_6_fmo_input.F26.005
-rw-r--r-- 1 hazwong frank        0 Dec  7 08:28 /scratch/hazwong/824322/28SR_6/usrc/28SR_6_fmo_input.F26.006
-rw-r--r-- 1 hazwong frank        0 Dec  7 08:28 /scratch/hazwong/824322/28SR_6/usrc/28SR_6_fmo_input.F26.007
-rw-r--r-- 1 hazwong frank        0 Dec  7 08:28 /scratch/hazwong/824322/28SR_6/usrc/28SR_6_fmo_input.F26.008
-rw-r--r-- 1 hazwong frank        0 Dec  7 08:28 /scratch/hazwong/824322/28SR_6/usrc/28SR_6_fmo_input.F26.009
-rw-r--r-- 1 hazwong frank        0 Dec  7 08:28 /scratch/hazwong/824322/28SR_6/usrc/28SR_6_fmo_input.F26.010
-rw-r--r-- 1 hazwong frank        0 Dec  7 08:28 /scratch/hazwong/824322/28SR_6/usrc/28SR_6_fmo_input.F26.011
-rw-r--r-- 1 hazwong frank        0 Dec  7 08:28 /scratch/hazwong/824322/28SR_6/usrc/28SR_6_fmo_input.F26.012
-rw-r--r-- 1 hazwong frank        0 Dec  7 08:28 /scratch/hazwong/824322/28SR_6/usrc/28SR_6_fmo_input.F26.013
-rw-r--r-- 1 hazwong frank        0 Dec  7 08:28 /scratch/hazwong/824322/28SR_6/usrc/28SR_6_fmo_input.F26.014
-rw-r--r-- 1 hazwong frank        0 Dec  7 08:28 /scratch/hazwong/824322/28SR_6/usrc/28SR_6_fmo_input.F26.015
-rw-r--r-- 1 hazwong frank        0 Dec  7 08:28 /scratch/hazwong/824322/28SR_6/usrc/28SR_6_fmo_input.F27.000
-rw-r--r-- 1 hazwong frank        0 Dec  7 08:28 /scratch/hazwong/824322/28SR_6/usrc/28SR_6_fmo_input.F27.001
-rw-r--r-- 1 hazwong frank        0 Dec  7 08:28 /scratch/hazwong/824322/28SR_6/usrc/28SR_6_fmo_input.F27.002
-rw-r--r-- 1 hazwong frank        0 Dec  7 08:28 /scratch/hazwong/824322/28SR_6/usrc/28SR_6_fmo_input.F27.003
-rw-r--r-- 1 hazwong frank        0 Dec  7 08:28 /scratch/hazwong/824322/28SR_6/usrc/28SR_6_fmo_input.F27.004
-rw-r--r-- 1 hazwong frank        0 Dec  7 08:28 /scratch/hazwong/824322/28SR_6/usrc/28SR_6_fmo_input.F27.005
-rw-r--r-- 1 hazwong frank        0 Dec  7 08:28 /scratch/hazwong/824322/28SR_6/usrc/28SR_6_fmo_input.F27.006
-rw-r--r-- 1 hazwong frank        0 Dec  7 08:28 /scratch/hazwong/824322/28SR_6/usrc/28SR_6_fmo_input.F27.007
-rw-r--r-- 1 hazwong frank        0 Dec  7 08:28 /scratch/hazwong/824322/28SR_6/usrc/28SR_6_fmo_input.F27.008
-rw-r--r-- 1 hazwong frank        0 Dec  7 08:28 /scratch/hazwong/824322/28SR_6/usrc/28SR_6_fmo_input.F27.009
-rw-r--r-- 1 hazwong frank        0 Dec  7 08:28 /scratch/hazwong/824322/28SR_6/usrc/28SR_6_fmo_input.F27.010
-rw-r--r-- 1 hazwong frank        0 Dec  7 08:28 /scratch/hazwong/824322/28SR_6/usrc/28SR_6_fmo_input.F27.011
-rw-r--r-- 1 hazwong frank        0 Dec  7 08:28 /scratch/hazwong/824322/28SR_6/usrc/28SR_6_fmo_input.F27.012
-rw-r--r-- 1 hazwong frank        0 Dec  7 08:28 /scratch/hazwong/824322/28SR_6/usrc/28SR_6_fmo_input.F27.013
-rw-r--r-- 1 hazwong frank        0 Dec  7 08:28 /scratch/hazwong/824322/28SR_6/usrc/28SR_6_fmo_input.F27.014
-rw-r--r-- 1 hazwong frank        0 Dec  7 08:28 /scratch/hazwong/824322/28SR_6/usrc/28SR_6_fmo_input.F27.015
-rw-r--r-- 1 hazwong frank 33538048 Dec  7 16:07 /scratch/hazwong/824322/28SR_6/usrc/28SR_6_fmo_input.F40.000
-rw-r--r-- 1 hazwong frank 33538048 Dec  7 16:07 /scratch/hazwong/824322/28SR_6/usrc/28SR_6_fmo_input.F40.001
-rw-r--r-- 1 hazwong frank 33538048 Dec  7 16:07 /scratch/hazwong/824322/28SR_6/usrc/28SR_6_fmo_input.F40.002
-rw-r--r-- 1 hazwong frank 33538048 Dec  7 16:07 /scratch/hazwong/824322/28SR_6/usrc/28SR_6_fmo_input.F40.003
-rw-r--r-- 1 hazwong frank 33538048 Dec  7 16:07 /scratch/hazwong/824322/28SR_6/usrc/28SR_6_fmo_input.F40.004
-rw-r--r-- 1 hazwong frank 33538048 Dec  7 16:07 /scratch/hazwong/824322/28SR_6/usrc/28SR_6_fmo_input.F40.005
-rw-r--r-- 1 hazwong frank 33538048 Dec  7 16:07 /scratch/hazwong/824322/28SR_6/usrc/28SR_6_fmo_input.F40.006
-rw-r--r-- 1 hazwong frank 33538048 Dec  7 16:07 /scratch/hazwong/824322/28SR_6/usrc/28SR_6_fmo_input.F40.007
-rw-r--r-- 1 hazwong frank 33538048 Dec  7 16:07 /scratch/hazwong/824322/28SR_6/usrc/28SR_6_fmo_input.F40.008
-rw-r--r-- 1 hazwong frank 33538048 Dec  7 16:07 /scratch/hazwong/824322/28SR_6/usrc/28SR_6_fmo_input.F40.009
-rw-r--r-- 1 hazwong frank 33538048 Dec  7 16:07 /scratch/hazwong/824322/28SR_6/usrc/28SR_6_fmo_input.F40.010
-rw-r--r-- 1 hazwong frank 33538048 Dec  7 16:07 /scratch/hazwong/824322/28SR_6/usrc/28SR_6_fmo_input.F40.011
-rw-r--r-- 1 hazwong frank 33538048 Dec  7 16:07 /scratch/hazwong/824322/28SR_6/usrc/28SR_6_fmo_input.F40.012
-rw-r--r-- 1 hazwong frank 33538048 Dec  7 16:07 /scratch/hazwong/824322/28SR_6/usrc/28SR_6_fmo_input.F40.013
-rw-r--r-- 1 hazwong frank 33538048 Dec  7 16:07 /scratch/hazwong/824322/28SR_6/usrc/28SR_6_fmo_input.F40.014
-rw-r--r-- 1 hazwong frank 33538048 Dec  7 16:07 /scratch/hazwong/824322/28SR_6/usrc/28SR_6_fmo_input.F40.015
ls: No match.
ls: No match.
ls: No match.
Sun Dec  8 09:08:54 EST 2019
0.186u 0.087s 24:40:02.60 0.0%	0+0k 1152+176io 18pf+0w
