‘28SR_5_fmo_input.inp’ -> ‘/scratch/hazwong/824970/./28SR_5_fmo_input.inp’
‘rungms’ -> ‘/scratch/hazwong/824970/./rungms’
‘gms-files.csh’ -> ‘/scratch/hazwong/824970/./gms-files.csh’
----- GAMESS execution script 'rungms' -----
This job is running on host gollum082.lsa.umich.edu
under operating system Linux at Sat Dec 7 08:28:51 EST 2019
Available scratch disk space (Kbyte units) at beginning of the job is
Filesystem     1K-blocks   Used Available Use% Mounted on
/dev/sda4      426933580 332728 426600852   1% /scratch
GAMESS temporary binary files will be written to /scratch/hazwong/824970/28SR_5/usrc
GAMESS supplementary output files will be written to /scratch/hazwong/824970/28SR_5/src
Copying input file 28SR_5_fmo_input.inp to your run's scratch directory...
cp 28SR_5_fmo_input.inp /scratch/hazwong/824970/28SR_5/usrc/28SR_5_fmo_input.F05
unset echo
This is a GDDI run, keeping various output files on local disks
setenv OUTPUT /scratch/hazwong/824970/28SR_5/usrc/28SR_5_fmo_input.F06
setenv PUNCH /scratch/hazwong/824970/28SR_5/usrc/28SR_5_fmo_input.F07
unset echo
 
Assuming a single but multicore node.
 
/export/apps/CentOS7/gamess/src/build//ddikick.x /export/apps/CentOS7/gamess/src/build//gamess.R3.x 28SR_5_fmo_input -ddi 1 16 gollum082.lsa.umich.edu:cpus=16 -scr /scratch/hazwong/824970/28SR_5/usrc

 Distributed Data Interface kickoff program.
 Initiating 16 compute processes on 1 nodes to run the following command:
 /export/apps/CentOS7/gamess/src/build//gamess.R3.x 28SR_5_fmo_input 

          ******************************************************
          *         GAMESS VERSION = 30 SEP 2018 (R3)         *
          *             FROM IOWA STATE UNIVERSITY             *
          * M.W.SCHMIDT, K.K.BALDRIDGE, J.A.BOATZ, S.T.ELBERT, *
          *   M.S.GORDON, J.H.JENSEN, S.KOSEKI, N.MATSUNAGA,   *
          *          K.A.NGUYEN, S.J.SU, T.L.WINDUS,           *
          *       TOGETHER WITH M.DUPUIS, J.A.MONTGOMERY       *
          *         J.COMPUT.CHEM.  14, 1347-1363(1993)        *
          **************** 64 BIT LINUX VERSION ****************

  SINCE 1993, STUDENTS AND POSTDOCS WORKING AT IOWA STATE UNIVERSITY
  AND ALSO IN THEIR VARIOUS JOBS AFTER LEAVING ISU HAVE MADE IMPORTANT
  CONTRIBUTIONS TO THE CODE:
     IVANA ADAMOVIC, CHRISTINE AIKENS, YURI ALEXEEV, POOJA ARORA,
     ANDREY ASADCHEV, ROB BELL, PRADIPTA BANDYOPADHYAY, JONATHAN BENTZ,
     BRETT BODE, KURT BRORSEN, CALEB CARLIN, GALINA CHABAN, WEI CHEN,
     CHEOL HO CHOI, PAUL DAY, ALBERT DEFUSCO, NUWAN DESILVA, TIM DUDLEY,
     DMITRI FEDOROV, ALEX FINDLATER, GRAHAM FLETCHER, MARK FREITAG,
     KURT GLAESEMANN, ANASTASIA GUNINA,
     DAN KEMP, GRANT MERRILL, NORIYUKI MINEZAWA, JONATHAN MULLIN,
     TAKESHI NAGATA, SEAN NEDD, HEATHER NETZLOFF, BOSILJKA NJEGIC, RYAN OLSON,
     MIKE PAK, BUU PHAM,
     SPENCER PRUITT, LUKE ROSKOP, JIM SHOEMAKER, LYUDMILA SLIPCHENKO,
     TONY SMITH, SAROM SOK LEANG, JIE SONG, TETSUYA TAKETSUGU, SIMON WEBB,
     PENG XU, SOOHAENG YOO, FEDERICO ZAHARIEV

  ADDITIONAL CODE HAS BEEN PROVIDED BY COLLABORATORS IN OTHER GROUPS:
     IOWA STATE UNIVERSITY:
          JOE IVANIC, AARON WEST, LAIMUTIS BYTAUTAS, KLAUS RUEDENBERG
     UNIVERSITY OF TOKYO: KIMIHIKO HIRAO, TAKAHITO NAKAJIMA,
          TAKAO TSUNEDA, MUNEAKI KAMIYA, SUSUMU YANAGISAWA,
          KIYOSHI YAGI, MAHITO CHIBA, SEIKEN TOKURA, NAOAKI KAWAKAMI
     UNIVERSITY OF AARHUS: FRANK JENSEN
     UNIVERSITY OF IOWA: VISVALDAS KAIRYS, HUI LI
     NATIONAL INST. OF STANDARDS AND TECHNOLOGY: WALT STEVENS, DAVID GARMER
     UNIVERSITY OF PISA: BENEDETTA MENNUCCI, JACOPO TOMASI
     UNIVERSITY OF MEMPHIS: HENRY KURTZ, PRAKASHAN KORAMBATH
     UNIVERSITY OF ALBERTA: TOBY ZENG, MARIUSZ KLOBUKOWSKI
     UNIVERSITY OF NEW ENGLAND: MARK SPACKMAN
     MIE UNIVERSITY: HIROAKI UMEDA
     NAT. INST. OF ADVANCED INDUSTRIAL SCIENCE AND TECHNOLOGY: KAZUO KITAURA
     MICHIGAN STATE UNIVERSITY:
          KAROL KOWALSKI, MARTA WLOCH, JEFFREY GOUR, JESSE LUTZ,
          WEI LI, JUN SHEN, J. EMILIANO DEUSTUA, PIOTR PIECUCH
     UNIVERSITY OF MINNESOTA:
          YINAN SHU
     UNIVERSITY OF SILESIA: MONIKA MUSIAL, STANISLAW KUCHARSKI
     FACULTES UNIVERSITAIRES NOTRE-DAME DE LA PAIX:
          OLIVIER QUINET, BENOIT CHAMPAGNE
     UNIVERSITY OF CALIFORNIA - SANTA BARBARA: BERNARD KIRTMAN
     INSTITUTE FOR MOLECULAR SCIENCE:
          KAZUYA ISHIMURA, MICHIO KATOUDA, AND SHIGERU NAGASE
     UNIVERSITY OF NOTRE DAME: ANNA POMOGAEVA, DAN CHIPMAN
     KYUSHU UNIVERSITY:
          HARUYUKI NAKANO,
          FENG LONG GU, JACEK KORCHOWIEC, MARCIN MAKOWSKI, AND YURIKO AOKI,
          HIROTOSHI MORI AND EISAKU MIYOSHI
     PENNSYLVANIA STATE UNIVERSITY:
          TZVETELIN IORDANOV, CHET SWALINA, JONATHAN SKONE,
          SHARON HAMMES-SCHIFFER
     WASEDA UNIVERSITY:
          MASATO KOBAYASHI, TOMOKO AKAMA, TSUGUKI TOUMA,
          TAKESHI YOSHIKAWA, YASUHIRO IKABATA, JUNJI SEINO,
          YUYA NAKAJIMA, HIROMI NAKAI
     NANJING UNIVERSITY: SHUHUA LI
     UNIVERSITY OF NEBRASKA:
          PEIFENG SU, DEJUN SI, NANDUN THELLAMUREGE, YALI WANG, HUI LI
     UNIVERSITY OF ZURICH: ROBERTO PEVERATI, KIM BALDRIDGE
     N. COPERNICUS UNIVERSITY AND JACKSON STATE UNIVERSITY:
          MARIA BARYSZ
     UNIVERSITY OF COPENHAGEN: Jimmy Kromann, CASPER STEINMANN
     TOKYO INSTITUTE OF TECHNOLOGY: HIROYA NAKATA
     NAGOYA UNIVERSITY: YOSHIO NISHIMOTO, STEPHAN IRLE
     MOSCOW STATE UNIVERSITY: VLADIMIR MIRONOV


 PARALLEL VERSION RUNNING ON       16 PROCESSORS IN        1 NODES.

 EXECUTION OF GAMESS BEGUN Sat Dec  7 08:28:51 2019

            ECHO OF THE FIRST FEW INPUT CARDS -
 INPUT CARD>!*** FMO 5.3 (Gamess) INPUT generated by Facio 22.1.1.32 ***                    
 INPUT CARD> $CONTRL RUNTYP=ENERGY NPRINT=-5 ISPHER=1 MAXIT=200 $END                        
 INPUT CARD> $SYSTEM MWORDS=63 MEMDDI=63 $END                                               
 INPUT CARD> $GDDI NGROUP=1 $END                                                            
 INPUT CARD> $SCF DIRSCF=.TRUE. NPUNCH=0 $END                                               
 INPUT CARD>!*** NumCPU : 2  MemPerNode : 512MB                                             
 INPUT CARD> $PCM SOLVNT=WATER IEF=-10 ICOMP=2 ICAV=1 IDISP=1 IFMO=-1 $END                  
 INPUT CARD> $PCMCAV RADII=SUAHF $END                                                       
 INPUT CARD> $TESCAV NTSALL=60 $END                                                         
 INPUT CARD> $FMOPRP                                                                        
 INPUT CARD>    NAODIR=200                                                                  
 INPUT CARD>    NGRFMO(1)=1, 1, 0, 0, 0,   0, 0, 0, 0, 0                                    
 INPUT CARD>    IPIEDA=1                                                                    
 INPUT CARD>    NPRINT=9                                                                    
 INPUT CARD> $END                                                                           
 INPUT CARD> $FMO                                                                           
 INPUT CARD>      SCFTYP(1)=RHF                                                             
 INPUT CARD>      MODGRD=10                                                                 
 INPUT CARD>      MODMUL=0                                                                  
 INPUT CARD>      MAXCAO=5                                                                  
 INPUT CARD>      MAXBND=18                                                                 
 INPUT CARD>      NLAYER=1                                                                  
 INPUT CARD>      MPLEVL(1)=2                                                               
 INPUT CARD>      NFRAG=16                                                                  
 INPUT CARD>      ICHARG(1)=-1, -1, -1, -1, -1, -1, -1, 0, -1, -1, -1, -1, -1, -1,          
 INPUT CARD>-1, 0                                                                           
 INPUT CARD>      FRGNAM(1)=F1, F2, F3, F4, F5, F6, F7, F8, F9, F10, F11, F12, F13,         
 INPUT CARD>F14, F15, F16                                                                   
 INPUT CARD>      indat(1)=0                                                                
 INPUT CARD>               1   -36   0                                                      
 INPUT CARD>               37   -66   0                                                     
 INPUT CARD>               67   -97   0                                                     
 INPUT CARD>               98   -130   0                                                    
 INPUT CARD>               131   -164   0                                                   
 INPUT CARD>               165   -198   0                                                   
 INPUT CARD>               199   -228   0                                                   
 INPUT CARD>               229   -258   0                                                   
 INPUT CARD>               259   -292   0                                                   
 INPUT CARD>               293   -325   0                                                   
 INPUT CARD>               326   -358   0                                                   
 INPUT CARD>               359   -392   0                                                   
 INPUT CARD>               393   -423   0                                                   
 INPUT CARD>               424   -456   0                                                   
 INPUT CARD>               457   -490   0                                                   
 INPUT CARD>               491   -518   0                                                   
 INPUT CARD> $END                                                                           
 INPUT CARD>                                                                                
 INPUT CARD> $FMOBND                                                                        
 INPUT CARD>   -37   36       6-31G*    MINI                                                
 INPUT CARD>   -67   66       6-31G*    MINI                                                


 -------------------------------------------------------------
 GROUP DDI, PROGRAMMED BY: RYAN M. OLSON AND DMITRI G. FEDOROV
        FEDOROV ET AL., J. COMPUT. CHEM., 25 (2004) 872.
 -------------------------------------------------------------

 -------------------------------------------------------
 GDDI: INITIALIZATION COMPLETED FOR GROUP     1 OF     1
 WITH    16 PROCESSES BALTYP=DLB   global rank=        0
 -------------------------------------------------------

   63000000 WORDS OF MEMORY AVAILABLE


     RUN TITLE
     ---------
  FMO calculation                                                                

 THE POINT GROUP OF THE MOLECULE IS C1      
 THE ORDER OF THE PRINCIPAL AXIS IS     0

 ATOM   ATOMIC CHARGE
 H.1-1       1.0
 O.1-1       8.0
 C.1-1       6.0
 N.1-1       7.0
 P.1-1      15.0

     ATOMIC BASIS SET LIBRARY
     ----------------
 THE CONTRACTED PRIMITIVE FUNCTIONS HAVE BEEN UNNORMALIZED
 THE CONTRACTED BASIS FUNCTIONS ARE NOW NORMALIZED TO UNITY

  SHELL TYPE  PRIMITIVE        EXPONENT          CONTRACTION COEFFICIENT(S)

 H.1-1     

      1   S       1            18.7311370    0.033494604338
      1   S       2             2.8253944    0.234726953484
      1   S       3             0.6401217    0.813757326146

      2   S       4             0.1612778    1.000000000000

 O.1-1     

      3   S       5          5484.6716600    0.001831074430
      3   S       6           825.2349460    0.013950172200
      3   S       7           188.0469580    0.068445078098
      3   S       8            52.9645000    0.232714335992
      3   S       9            16.8975704    0.470192897984
      3   S      10             5.7996353    0.358520852987

      4   L      11            15.5396162   -0.110777549525    0.070874268231
      4   L      12             3.5999336   -0.148026262701    0.339752839147
      4   L      13             1.0137618    1.130767015354    0.727158577316

      5   L      14             0.2700058    1.000000000000    1.000000000000

      6   D      15             0.8000000    1.000000000000

 C.1-1     

      7   S      16          3047.5248800    0.001834737132
      7   S      17           457.3695180    0.014037322813
      7   S      18           103.9486850    0.068842622264
      7   S      19            29.2101553    0.232184443216
      7   S      20             9.2866630    0.467941348435
      7   S      21             3.1639270    0.362311985337

      8   L      22             7.8682723   -0.119332419775    0.068999066591
      8   L      23             1.8812885   -0.160854151696    0.316423960957
      8   L      24             0.5442493    1.143456437840    0.744308290898

      9   L      25             0.1687145    1.000000000000    1.000000000000

     10   D      26             0.8000000    1.000000000000

 N.1-1     

     11   S      27          4173.5114600    0.001834772160
     11   S      28           627.4579110    0.013994627002
     11   S      29           142.9020930    0.068586551812
     11   S      30            40.2343293    0.232240873040
     11   S      31            12.8202129    0.469069948082
     11   S      32             4.3904370    0.360455199063

     12   L      33            11.6263619   -0.114961181702    0.067579743878
     12   L      34             2.7162798   -0.169117478561    0.323907295893
     12   L      35             0.7722184    1.145851947027    0.740895139755

     13   L      36             0.2120315    1.000000000000    1.000000000000

     14   D      37             0.8000000    1.000000000000

 P.1-1     

     15   S      38         19413.3000000    0.001851598923
     15   S      39          2909.4200000    0.014206191735
     15   S      40           661.3640000    0.069999459277
     15   S      41           185.7590000    0.240078860331
     15   S      42            59.1943000    0.484761717984
     15   S      43            20.0310000    0.335199804993

     16   L      44           339.4780000   -0.002782170105    0.004564616191
     16   L      45            81.0101000   -0.036049901354    0.033693571881
     16   L      46            25.8780000   -0.116631004382    0.139754883368
     16   L      47             9.4522100    0.096832803638    0.339361716786
     16   L      48             3.6656600    0.614418023082    0.450920623685
     16   L      49             1.4674600    0.403798015170    0.238585800889

     17   L      50             2.1562300   -0.252924113863   -0.017765312733
     17   L      51             0.7489970    0.032851844678    0.274058196433
     17   L      52             0.2831450    1.081254761783    0.785421562957

     18   L      53             0.0998317    1.000000000000    1.000000000000

     19   D      54             0.5500000    1.000000000000

 TOTAL NUMBER OF BASIS SET SHELLS             =   19
 NUMBER OF CARTESIAN GAUSSIAN BASIS FUNCTIONS =   66

     $CONTRL OPTIONS
     ---------------
 SCFTYP=RHF          RUNTYP=ENERGY       EXETYP=RUN     
 MPLEVL=       0     CITYP =NONE         CCTYP =NONE         VBTYP =NONE    
 DFTTYP=NONE         TDDFT =NONE    
 MULT  =       1     ICHARG=       0     NZVAR =       0     COORD =UNIQUE  
 PP    =NONE         RELWFN=NONE         LOCAL =NONE         NUMGRD=       F
 ISPHER=       1     NOSYM =       0     MAXIT =     200     UNITS =ANGS    
 PLTORB=       F     MOLPLT=       F     AIMPAC=       F     FRIEND=        
 NPRINT=      -5     IREST =       0     GEOM  =INPUT   
 NORMF =       0     NORMP =       0     ITOL  =      24     ICUT  =      12
 INTTYP=BEST         GRDTYP=BEST         QMTTOL= 1.0E-06

     $SYSTEM OPTIONS
     ---------------
  REPLICATED MEMORY=    63000000 WORDS (ON EVERY NODE).
 DISTRIBUTED MEMDDI=          63 MILLION WORDS IN AGGREGATE,
 MEMDDI DISTRIBUTED OVER  16 PROCESSORS IS     3937500 WORDS/PROCESSOR.
 TOTAL MEMORY REQUESTED ON EACH PROCESSOR=    66937500 WORDS.
 TIMLIM=      525600.00 MINUTES, OR     365.0 DAYS.
 PARALL= T  BALTYP=  DLB     KDIAG=    0  COREFL= F
 MXSEQ2=     300 MXSEQ3=     150  mem10=         0

 ** LOOKING UP INTERNALLY STORED DATA FOR SOLVENT=WATER    **
 OPTICAL AND PHYSICAL CONSTANTS:
 EPS= 78.390; EPSINF=  1.776; RSOLV=  1.385 A; VMOL=  18.070 ML/MOL;
 TCE= .25700E-03 1/K; STEN= 71.810 DYN/CM;  DSTEN=  0.6500; CMF=  1.2770


     -----------------------------------
     INPUT FOR PCM SOLVATION CALCULATION 
     -----------------------------------
     IEF   =     -10
     ICOMP =       2     IFIELD=       0     ICAV  =       1
     IDISP =       1     IREP  =       0     IDP   =       0

     SOLVNT=WATER        EPS   = 78.3900     EPSINF=  1.7760
     VMOL  = 18.0700     TCE   =  0.00025700 STEN  = 71.8100
     DSTEN =  0.6500     CMF   =  1.2770     RSOLV =  1.3850

     NESFP =       0
     OMEGA = 40.0000     RET   =100.0000     FRO   =  0.7000

     TABS  =298.0000     IPRINT=       0

     --------------------------------
     INPUT FOR ITERATIVE C-PCM METHOD 
     --------------------------------
     IPCMIT  =         1     MXDIIS  =        50
     MXITR1  =       200     MXITR2  =       200
     THRES   = 0.100E-09     IMUL    =         3
     RCUT(1) =   20.0000     RCUT(2) =   50.0000

     IDIRCT  =         1
     IMGABI  =         0     RABI    =    4.0000
     IMGASC  =         0     RASC    =   20.0000
     THRSLS  = 0.500E-03     DENSLS  =    0.0100
     IEFPOL  =         1     REFPOL  =    0.0000

     INPUT FOR ISOTROPIC DIELECTRICS
     -------------------------------
     EPS=    78.39

          ----------------
          PROPERTIES INPUT
          ----------------

     MOMENTS            FIELD           POTENTIAL          DENSITY
 IEMOM =       1   IEFLD =       0   IEPOT =       0   IEDEN =       0
 WHERE =COMASS     WHERE =NUCLEI     WHERE =NUCLEI     WHERE =NUCLEI  
 OUTPUT=BOTH       OUTPUT=BOTH       OUTPUT=NONE       OUTPUT=BOTH    
 IEMINT=       0   IEFINT=       0                     IEDINT=       0
                                                       MORB  =       0
          EXTRAPOLATION IN EFFECT
          SOSCF IN EFFECT
 ORBITAL PRINTING OPTION: NPREO=     1 32767     2     1

     -------------------------------
     INTEGRAL TRANSFORMATION OPTIONS
     -------------------------------
     NWORD  =            0
     CUTOFF = 1.0E-10     MPTRAN =       0
     DIRTRF =       T     AOINTS =DUP     

          ----------------------
          INTEGRAL INPUT OPTIONS
          ----------------------
 NOPK  =       1 NORDER=       0 SCHWRZ=       T

 ..... DONE SETTING UP THE RUN .....
 CPU     0: STEP CPU TIME=     0.04 TOTAL CPU TIME=          0.0 (      0.0 MIN)
 TOTAL WALL CLOCK TIME=          0.1 SECONDS, CPU UTILIZATION IS    40.00%
 CPU     0: STEP CPU TIME=     0.00 TOTAL CPU TIME=          0.0 (      0.0 MIN)
 TOTAL WALL CLOCK TIME=          0.1 SECONDS, CPU UTILIZATION IS    40.00%

                    ----------------------
                    AO INTEGRAL TECHNOLOGY
                    ----------------------
     S,P,L SHELL ROTATED AXIS INTEGRALS, REPROGRAMMED BY
        KAZUYA ISHIMURA (IMS) AND JOSE SIERRA (SYNSTAR).
     S,P,D,L SHELL ROTATED AXIS INTEGRALS PROGRAMMED BY
        KAZUYA ISHIMURA (INSTITUTE FOR MOLECULAR SCIENCE).
     S,P,D,F,G SHELL TO TOTAL QUARTET ANGULAR MOMENTUM SUM 5,
        ERIC PROGRAM BY GRAHAM FLETCHER (ELORET AND NASA ADVANCED
        SUPERCOMPUTING DIVISION, AMES RESEARCH CENTER).
     S,P,D,F,G,L SHELL GENERAL RYS QUADRATURE PROGRAMMED BY
        MICHEL DUPUIS (PACIFIC NORTHWEST NATIONAL LABORATORY).
 Setting modorb=1 flag...
 Setting modorb=1 flag...

          -----------------------
          MP2 CONTROL INFORMATION
          -----------------------
          NACORE =        8  NBCORE =        8
          LMOMP2 =        F  AOINTS = DUP     
          METHOD =        2  NWORD  =               0
          MP2PRP =        F  OSPT   = NONE    
          CUTOFF = 1.00E-12  CPHFBS = BASISAO 
          CODE   = IMS     

          NUMBER OF CORE -A-  ORBITALS =     8
          NUMBER OF CORE -B-  ORBITALS =     8
          NUMBER OF OCC. -A-  ORBITALS =    18
          NUMBER OF OCC. -B-  ORBITALS =    18
          NUMBER OF MOLECULAR ORBITALS =    66
          NUMBER OF   BASIS  FUNCTIONS =    66

 CPU     0: STEP CPU TIME=     0.03 TOTAL CPU TIME=          0.1 (      0.0 MIN)
 TOTAL WALL CLOCK TIME=          0.1 SECONDS, CPU UTILIZATION IS    53.85%
 CPU     0: STEP CPU TIME=     0.00 TOTAL CPU TIME=          0.1 (      0.0 MIN)
 TOTAL WALL CLOCK TIME=          0.1 SECONDS, CPU UTILIZATION IS    53.85%

     INPUT FOR CAVITY DEFINITION 
     ---------------------------
   ATOM               COORDINATES                RADIUS       EPS
      1      4.5830    -51.8970     39.7500      0.0100     78.3900
      2      5.1910    -52.2490     39.0720      1.5900     78.3900
      3      6.2150    -52.9690     39.7730      1.7700     78.3900
      4      5.7390    -53.7530     40.4060      0.0100     78.3900
      5      6.7620    -52.2730     40.4480      0.0100     78.3900
      6      7.2180    -53.6370     38.8290      1.7700     78.3900
      7      8.0180    -54.1400     39.4160      0.0100     78.3900
      8      6.5510    -54.6630     38.0380      1.5900     78.3900
      9      7.0940    -54.6650     36.7280      1.7700     78.3900
     10      7.4420    -55.7030     36.5250      0.0100     78.3900
     11      6.0840    -54.3020     35.7280      1.6800     78.3900
     12      6.1750    -54.5150     34.3800      1.7700     78.3900
     13      7.9070    -55.7390     31.6490      1.6800     78.3900
     14      8.7590    -56.0650     32.0540      0.0100     78.3900
     15      7.7690    -55.8480     30.6600      0.0100     78.3900
     16      7.2140    -55.0740     33.7390      1.6800     78.3900
     17      6.9980    -55.1980     32.4330      1.7700     78.3900
     18      5.8460    -54.7810     31.8210      1.6800     78.3900
     19      5.7570    -54.9190     30.8270      0.0100     78.3900
     20      4.7600    -54.1910     32.4540      1.7700     78.3900
     21      3.7650    -53.8490     31.8100      1.5900     78.3900
     22      4.9820    -54.0620     33.8520      1.7700     78.3900
     23      4.1620    -53.5570     34.8510      1.6800     78.3900
     24      4.8570    -53.7200     35.9530      1.7700     78.3900
     25      4.5320    -53.4360     36.9580      0.0100     78.3900
     26      8.2840    -53.7310     36.7220      1.7700     78.3900
     27      8.4390    -53.2360     35.7410      0.0100     78.3900
     28      9.4460    -54.4520     37.0880      1.5900     78.3900
     29     10.1550    -53.8060     37.1860      0.0100     78.3900
     30      7.8940    -52.7210     37.7940      1.7700     78.3900
     31      7.1030    -52.0330     37.4130      0.0100     78.3900
     32      9.0140    -52.0280     38.3940      1.5900     78.3900
     33      9.4210    -50.6000     37.8710      2.1000     78.3900
     34      8.2010    -49.7750     37.7650      1.5900     78.3900
     35     10.4980    -50.0830     38.7440      1.5900     78.3900
     36      9.9930    -50.8270     36.4290      1.5900     78.3900
     37     11.1920    -51.5900     36.1700      1.7700     78.3900
     38     11.1560    -52.5860     36.6600      0.0100     78.3900
     39     12.0810    -51.0520     36.5800      0.0100     78.3900
     40     11.3920    -51.8080     34.6570      1.7700     78.3900
     41     12.3400    -52.3520     34.4570      0.0100     78.3900
     42     10.3030    -52.6250     34.1290      1.5900     78.3900
     43      9.9220    -52.1490     32.8420      1.7700     78.3900
     44     10.0370    -53.0230     32.1600      0.0100     78.3900
     45      8.5060    -51.6670     32.7980      1.6800     78.3900
     46      7.8690    -51.2740     33.9490      1.7700     78.3900
     47      8.4680    -51.3410     34.8530      0.0100     78.3900
     48      7.8490    -51.6290     31.5840      1.7700     78.3900
     49      8.3850    -51.9510     30.5310      1.5900     78.3900
     50      6.5380    -51.2120     31.6430      1.6800     78.3900
     51      6.0060    -51.1900     30.7810      0.0100     78.3900
     52      5.8270    -50.8590     32.7680      1.7700     78.3900
     53      4.6440    -50.5570     32.6790      1.5900     78.3900
     54      6.5860    -50.8910     33.9820      1.7700     78.3900
     55      6.0870    -50.6350     34.9140      0.0100     78.3900
     56     10.9310    -51.0850     32.4420      1.7700     78.3900
     57     10.4610    -50.2930     31.8330      0.0100     78.3900
     58     12.0160    -51.6630     31.7360      1.5900     78.3900
     59     12.6840    -50.9660     31.6320      0.0100     78.3900
     60     11.3710    -50.5370     33.7930      1.7700     78.3900
     61     10.5700    -49.8850     34.2070      0.0100     78.3900
     62     12.6740    -49.9060     33.8040      1.5900     78.3900
     63     12.7760    -48.3630     33.4660      2.1000     78.3900
     64     11.6350    -47.6560     34.0860      1.5900     78.3900
     65     14.1320    -47.9030     33.8350      1.5900     78.3900
     66     12.6460    -48.2930     31.8970      1.5900     78.3900
     67     12.1400    -47.0990     31.2460      1.7700     78.3900
     68     12.9880    -46.4930     30.8560      0.0100     78.3900
     69     11.5580    -46.4450     31.9380      0.0100     78.3900
     70     11.2160    -47.4500     30.0710      1.7700     78.3900
     71     11.7960    -47.9220     29.2520      0.0100     78.3900
     72     10.2230    -48.4220     30.4890      1.5900     78.3900
     73      8.9900    -48.1440     29.8750      1.7700     78.3900
     74      8.7190    -49.0740     29.3260      0.0100     78.3900
     75      7.9200    -47.8490     30.8690      1.6800     78.3900
     76      8.2100    -47.5710     32.1920      1.7700     78.3900
     77      9.2690    -47.5880     32.4710      0.0100     78.3900
     78      7.2320    -47.3300     33.0790      1.7700     78.3900
     79      7.4340    -47.1240     34.1280      0.0100     78.3900
     80      6.6020    -47.8500     30.4360      1.7700     78.3900
     81      6.3640    -48.0690     29.2400      1.5900     78.3900
     82      5.6110    -47.6030     31.3210      1.6800     78.3900
     83      5.8830    -47.3760     32.6150      1.7700     78.3900
     84      4.8700    -47.2390     33.4720      1.6800     78.3900
     85      3.9600    -47.5030     33.1220      0.0100     78.3900
     86      4.9980    -47.1010     34.4520      0.0100     78.3900
     87      9.2250    -47.0210     28.8690      1.7700     78.3900
     88      8.3430    -46.3530     28.7570      0.0100     78.3900
     89      9.5910    -47.5400     27.6040      1.5900     78.3900
     90      9.9110    -46.7780     27.1030      0.0100     78.3900
     91     10.4110    -46.2840     29.4820      1.7700     78.3900
     92     10.0760    -45.6560     30.3390      0.0100     78.3900
     93     11.2290    -45.5610     28.5210      1.5900     78.3900
     94     10.8000    -44.0950     28.1440      2.1000     78.3900
     95      9.3740    -43.9330     28.4560      1.5900     78.3900
     96     11.7300    -43.1570     28.8120      1.5900     78.3900
     97     10.9210    -43.9960     26.5920      1.5900     78.3900
     98     12.0980    -44.3150     25.8390      1.7700     78.3900
     99     12.6340    -45.1960     26.2660      0.0100     78.3900
    100     12.7890    -43.4390     25.8350      0.0100     78.3900
    101     11.7200    -44.6450     24.3880      1.7700     78.3900
    102     12.6090    -44.9780     23.8130      0.0100     78.3900
    103     10.7490    -45.7360     24.3690      1.5900     78.3900
    104      9.8110    -45.5200     23.3220      1.7700     78.3900
    105      9.8380    -46.4230     22.6720      0.0100     78.3900
    106      8.4490    -45.3480     23.8510      1.6800     78.3900
    107      6.2620    -45.2130     24.0190      1.7700     78.3900
    108      6.7540    -45.1110     25.3120      1.6800     78.3900
    109      8.0520    -45.1810     25.1600      1.7700     78.3900
    110      8.7800    -45.1140     25.9710      0.0100     78.3900
    111      4.7970    -45.3280     22.1570      1.6800     78.3900
    112      5.9010    -45.4490     21.4130      1.7700     78.3900
    113      5.7250    -45.5480     20.3370      0.0100     78.3900
    114      7.1870    -45.4910     21.7790      1.6800     78.3900
    115      7.2950    -45.3620     23.1120      1.7700     78.3900
    116      4.9490    -45.2040     23.4990      1.7700     78.3900
    117      3.8570    -45.0800     24.2760      1.6800     78.3900
    118      3.9180    -45.0280     25.2730      0.0100     78.3900
    119      2.9510    -45.1020     23.8540      0.0100     78.3900
    120     10.2810    -44.3140     22.5310      1.7700     78.3900
    121      9.4420    -43.7220     22.1110      0.0100     78.3900
    122     11.1440    -44.7280     21.4880      1.5900     78.3900
    123     11.5970    -43.9410     21.1510      0.0100     78.3900
    124     11.0270    -43.5240     23.5930      1.7700     78.3900
    125     10.3040    -43.0410     24.2900      0.0100     78.3900
    126     11.9950    -42.6100     23.0450      1.5900     78.3900
    127     11.8690    -41.0560     23.2260      2.1000     78.3900
    128     11.6570    -40.7390     24.6510      1.5900     78.3900
    129     13.0350    -40.4330     22.5610      1.5900     78.3900
    130     10.5450    -40.6880     22.4580      1.5900     78.3900
    131     10.4690    -40.7220     21.0190      1.7700     78.3900
    132     10.9160    -41.6610     20.6170      0.0100     78.3900
    133     11.0190    -39.8560     20.5800      0.0100     78.3900
    134      9.0110    -40.6520     20.5470      1.7700     78.3900
    135      8.9590    -40.6720     19.4370      0.0100     78.3900
    136      8.2870    -41.8240     21.0260      1.5900     78.3900
    137      6.9640    -41.4520     21.3800      1.7700     78.3900
    138      6.2710    -42.1160     20.8120      0.0100     78.3900
    139      6.7200    -41.6230     22.8190      1.6800     78.3900
    140      5.4980    -41.7030     23.4250      1.7700     78.3900
    141      2.0430    -41.7840     23.2170      1.6800     78.3900
    142      1.2540    -41.8830     23.8260      0.0100     78.3900
    143      1.8830    -41.6510     22.2410      0.0100     78.3900
    144      4.3080    -41.6340     22.8050      1.6800     78.3900
    145      3.2910    -41.7940     23.6500      1.7700     78.3900
    146      3.4510    -41.9680     25.0000      1.6800     78.3900
    147      2.6300    -42.1540     25.5520      0.0100     78.3900
    148      4.6700    -42.0540     25.6600      1.7700     78.3900
    149      4.7000    -42.2270     26.8800      1.5900     78.3900
    150      5.7640    -41.8780     24.7700      1.7700     78.3900
    151      7.1360    -41.8810     25.0080      1.6800     78.3900
    152      7.6600    -41.7260     23.8170      1.7700     78.3900
    153      8.7250    -41.6930     23.5870      0.0100     78.3900
    154      6.7670    -40.0190     20.9430      1.7700     78.3900
    155      6.0750    -39.4760     21.6140      0.0100     78.3900
    156      6.2810    -39.9830     19.6160      1.5900     78.3900
    157      6.3610    -39.0720     19.2970      0.0100     78.3900
    158      8.1780    -39.4580     21.0400      1.7700     78.3900
    159      8.4580    -39.2880     22.1060      0.0100     78.3900
    160      8.4020    -38.3060     20.2040      1.5900     78.3900
    161      8.5810    -36.8680     20.8120      2.1000     78.3900
    162      9.5690    -36.9340     21.9090      1.5900     78.3900
    163      8.8670    -35.9450     19.6900      1.5900     78.3900
    164      7.1730    -36.5310     21.4260      1.5900     78.3900
    165      6.0070    -36.3190     20.5950      1.7700     78.3900
    166      5.9260    -37.0930     19.7940      0.0100     78.3900
    167      6.0650    -35.3250     20.0980      0.0100     78.3900
    168      4.7120    -36.3780     21.4220      1.7700     78.3900
    169      3.8240    -36.2010     20.7740      0.0100     78.3900
    170      4.5800    -37.7130     21.9890      1.5900     78.3900
    171      4.0810    -37.6300     23.3110      1.7700     78.3900
    172      3.1980    -38.3080     23.3670      0.0100     78.3900
    173      5.0860    -38.0610     24.2980      1.6800     78.3900
    174      4.8480    -38.4490     25.5890      1.7700     78.3900
    175      2.6540    -38.9950     28.2000      1.6800     78.3900
    176      2.6640    -39.4080     29.1040      0.0100     78.3900
    177      1.7760    -38.7380     27.7950      0.0100     78.3900
    178      3.6470    -38.5030     26.1850      1.6800     78.3900
    179      3.7300    -38.9210     27.4450      1.7700     78.3900
    180      4.9070    -39.2920     28.0420      1.6800     78.3900
    181      4.8900    -39.5850     29.0090      0.0100     78.3900
    182      6.1610    -39.2570     27.4500      1.7700     78.3900
    183      7.1990    -39.5800     28.0440      1.5900     78.3900
    184      6.0830    -38.7720     26.1160      1.7700     78.3900
    185      7.0830    -38.5710     25.1780      1.6800     78.3900
    186      6.4450    -38.1590     24.1140      1.7700     78.3900
    187      6.9070    -37.9350     23.1560      0.0100     78.3900
    188      3.6460    -36.2030     23.5280      1.7700     78.3900
    189      3.7260    -35.8870     24.5890      0.0100     78.3900
    190      2.3140    -36.0490     23.0770      1.5900     78.3900
    191      2.1460    -35.1000     22.9980      0.0100     78.3900
    192      4.6180    -35.4380     22.6390      1.7700     78.3900
    193      5.6330    -35.4040     23.0940      0.0100     78.3900
    194      4.1410    -34.1340     22.2360      1.5900     78.3900
    195      4.5160    -32.8700     23.1050      2.1000     78.3900
    196      5.9890    -32.8050     23.2130      1.5900     78.3900
    197      3.8470    -31.6910     22.5140      1.5900     78.3900
    198      3.9110    -33.1390     24.5350      1.5900     78.3900
    199      2.4810    -33.0820     24.7550      1.7700     78.3900
    200      1.9300    -33.7820     24.0900      0.0100     78.3900
    201      2.0950    -32.0570     24.5430      0.0100     78.3900
    202      2.1210    -33.4270     26.2070      1.7700     78.3900
    203      1.0220    -33.3840     26.3550      0.0100     78.3900
    204      2.5390    -34.7790     26.5380      1.5900     78.3900
    205      2.9660    -34.8270     27.8930      1.7700     78.3900
    206      2.3100    -35.5820     28.3890      0.0100     78.3900
    207      4.3980    -35.2380     28.0060      1.6800     78.3900
    208      5.2540    -35.1100     26.9330      1.7700     78.3900
    209      4.8130    -34.6870     26.0300      0.0100     78.3900
    210      4.8450    -35.7410     29.2100      1.7700     78.3900
    211      4.1280    -35.8370     30.1950      1.5900     78.3900
    212      6.1620    -36.1340     29.2130      1.6800     78.3900
    213      6.5180    -36.4740     30.1010      0.0100     78.3900
    214      7.0630    -36.0710     28.1730      1.7700     78.3900
    215      8.2120    -36.4760     28.3270      1.5900     78.3900
    216      6.5340    -35.5090     26.9690      1.7700     78.3900
    217      7.1820    -35.4350     26.0980      0.0100     78.3900
    218      2.6950    -33.4560     28.4960      1.7700     78.3900
    219      3.4470    -33.1770     29.2580      0.0100     78.3900
    220      1.4060    -33.4160     29.0780      1.5900     78.3900
    221      1.2330    -32.4920     29.3020      0.0100     78.3900
    222      2.7790    -32.5540     27.2720      1.7700     78.3900
    223      3.8430    -32.4340     26.9580      0.0100     78.3900
    224      2.0580    -31.3070     27.3890      1.5900     78.3900
    225      2.8690    -29.9790     27.6210      2.1000     78.3900
    226      4.1010    -29.9990     26.8070      1.5900     78.3900
    227      1.9610    -28.8280     27.4220      1.5900     78.3900
    228      3.2500    -30.0800     29.1450      1.5900     78.3900
    229      2.2150    -29.9350     30.1460      1.7700     78.3900
    230      1.3790    -30.6570     29.9830      0.0100     78.3900
    231      1.7900    -28.9010     30.1170      0.0100     78.3900
    232      2.7780    -30.1680     31.5530      1.7700     78.3900
    233      1.9960    -29.9810     32.3230      0.0100     78.3900
    234      3.2090    -31.5520     31.6970      1.5900     78.3900
    235      4.4010    -31.5900     32.4720      1.7700     78.3900
    236      4.1780    -32.2720     33.3280      0.0100     78.3900
    237      5.5630    -32.1290     31.7060      1.6800     78.3900
    238      5.5470    -32.1320     30.3310      1.7700     78.3900
    239      4.6530    -31.7210     29.8660      0.0100     78.3900
    240      6.5590    -32.6400     29.6170      1.7700     78.3900
    241      6.5440    -32.6780     28.5280      0.0100     78.3900
    242      6.6840    -32.6040     32.3780      1.7700     78.3900
    243      6.7080    -32.5570     33.6170      1.5900     78.3900
    244      7.7210    -33.1160     31.6770      1.6800     78.3900
    245      7.6780    -33.1510     30.3340      1.7700     78.3900
    246      8.7030    -33.6760     29.6680      1.6800     78.3900
    247      9.4880    -34.0430     30.1730      0.0100     78.3900
    248      8.7270    -33.7160     28.6720      0.0100     78.3900
    249      4.6490    -30.1870     33.0100      1.7700     78.3900
    250      5.7330    -29.9550     33.1040      0.0100     78.3900
    251      4.0030    -30.0240     34.2640      1.5900     78.3900
    252      4.0220    -29.0800     34.5020      0.0100     78.3900
    253      4.0110    -29.3350     31.9180      1.7700     78.3900
    254      4.6760    -29.2890     31.0290      0.0100     78.3900
    255      3.6230    -28.0170     32.3410      1.5900     78.3900
    256      4.4160    -27.4710     32.4970      0.0100     78.3900
    257     17.1940    -38.2730     35.1110      0.0100     78.3900
    258     16.3600    -37.8400     35.3690      1.5900     78.3900
    259     16.4780    -37.5160     36.7630      1.7700     78.3900
    260     17.3210    -36.8020     36.9030      0.0100     78.3900
    261     16.7150    -38.4410     37.3340      0.0100     78.3900
    262     15.2060    -36.8930     37.3450      1.7700     78.3900
    263     15.3160    -36.7160     38.4360      0.0100     78.3900
    264     14.9510    -35.6000     36.7170      1.5900     78.3900
    265     13.5480    -35.4490     36.5360      1.7700     78.3900
    266     13.2560    -34.4910     37.0240      0.0100     78.3900
    267     13.1820    -35.3920     35.1160      1.6800     78.3900
    268     12.0040    -34.9160     34.6040      1.7700     78.3900
    269      8.8760    -33.5240     35.0690      1.6800     78.3900
    270      8.8190    -33.4350     36.0590      0.0100     78.3900
    271      8.1120    -33.1910     34.5080      0.0100     78.3900
    272     10.9760    -34.4230     35.3180      1.6800     78.3900
    273      9.9810    -34.0040     34.5400      1.7700     78.3900
    274     10.0210    -34.0590     33.1710      1.6800     78.3900
    275      9.2260    -33.7070     32.6590      0.0100     78.3900
    276     11.0700    -34.5550     32.4080      1.7700     78.3900
    277     11.0250    -34.5600     31.1720      1.5900     78.3900
    278     12.1290    -35.0250     33.2300      1.7700     78.3900
    279     13.3550    -35.5860     32.8870      1.6800     78.3900
    280     13.9420    -35.7960     34.0430      1.7700     78.3900
    281     14.9330    -36.2350     34.1850      0.0100     78.3900
    282     12.8740    -36.5970     37.2450      1.7700     78.3900
    283     11.9110    -36.8860     36.7750      0.0100     78.3900
    284     12.6640    -36.2630     38.6030      1.5900     78.3900
    285     12.2680    -37.0440     39.0090      0.0100     78.3900
    286     13.9170    -37.6970     37.1070      1.7700     78.3900
    287     13.9520    -38.0770     36.0610      0.0100     78.3900
    288     13.8140    -38.7580     38.0780      1.5900     78.3900
    289     12.8920    -40.0020     37.7930      2.1000     78.3900
    290     13.2630    -40.5780     36.4840      1.5900     78.3900
    291     12.9690    -40.8880     38.9760      1.5900     78.3900
    292     11.4450    -39.3860     37.6960      1.5900     78.3900
    293     10.7430    -39.0230     38.9110      1.7700     78.3900
    294     11.3200    -38.2800     39.5080      0.0100     78.3900
    295     10.5880    -39.9180     39.5570      0.0100     78.3900
    296      9.3620    -38.4170     38.6150      1.7700     78.3900
    297      8.8730    -38.0570     39.5450      0.0100     78.3900
    298      9.4920    -37.2710     37.7220      1.5900     78.3900
    299      8.4240    -37.2750     36.7870      1.7700     78.3900
    300      7.9200    -36.2830     36.8650      0.0100     78.3900
    301      8.9050    -37.4700     35.4090      1.6800     78.3900
    302      9.0250    -37.4990     33.2120      1.7700     78.3900
    303     10.2400    -37.9840     33.6720      1.6800     78.3900
    304     10.1160    -37.9610     34.9780      1.7700     78.3900
    305     10.8850    -38.2750     35.6860      0.0100     78.3900
    306      7.2680    -36.7630     31.8090      1.6800     78.3900
    307      6.5790    -36.5210     32.9270      1.7700     78.3900
    308      5.5670    -36.1280     32.7750      0.0100     78.3900
    309      6.9400    -36.7080     34.2010      1.6800     78.3900
    310      8.1920    -37.1910     34.2720      1.7700     78.3900
    311      8.5260    -37.2640     31.9140      1.7700     78.3900
    312      9.2370    -37.5040     30.7950      1.6800     78.3900
    313     10.1930    -37.8070     30.8320      0.0100     78.3900
    314      8.8690    -37.2160     29.9070      0.0100     78.3900
    315      7.4570    -38.3610     37.2030      1.7700     78.3900
    316      6.9470    -38.8190     36.3340      0.0100     78.3900
    317      6.4850    -37.8590     38.0970      1.5900     78.3900
    318      5.9890    -38.6290     38.4170      0.0100     78.3900
    319      8.3930    -39.3510     37.8800      1.7700     78.3900
    320      9.0100    -39.8620     37.1050      0.0100     78.3900
    321      7.7430    -40.2460     38.8120      1.5900     78.3900
    322      7.7120    -41.7980     38.5460      2.1000     78.3900
    323      8.6430    -42.1400     37.4530      1.5900     78.3900
    324      7.8870    -42.5150     39.8260      1.5900     78.3900
    325      6.2480    -42.0330     38.0280      1.5900     78.3900
    326      5.0830    -41.7240     38.8270      1.7700     78.3900
    327      5.2800    -40.9100     39.5660      0.0100     78.3900
    328      4.7740    -42.6260     39.4000      0.0100     78.3900
    329      3.9040    -41.2770     37.9500      1.7700     78.3900
    330      3.0380    -40.9710     38.5760      0.0100     78.3900
    331      4.3100    -40.1160     37.1630      1.5900     78.3900
    332      3.7560    -40.2100     35.8610      1.7700     78.3900
    333      3.1880    -39.2650     35.6860      0.0100     78.3900
    334      4.8070    -40.3460     34.8390      1.6800     78.3900
    335      5.9050    -40.2840     32.9350      1.7700     78.3900
    336      6.8260    -40.6730     33.8940      1.6800     78.3900
    337      6.1210    -40.7210     34.9980      1.7700     78.3900
    338      6.5170    -40.9910     35.9770      0.0100     78.3900
    339      4.9080    -39.6270     30.8930      1.6800     78.3900
    340      3.7720    -39.5080     31.5820      1.7700     78.3900
    341      2.8930    -39.1930     31.0090      0.0100     78.3900
    342      3.5300    -39.7370     32.8730      1.6800     78.3900
    343      4.6560    -40.0960     33.5030      1.7700     78.3900
    344      6.0260    -40.0330     31.5530      1.7700     78.3900
    345      7.1850    -40.1790     30.8790      1.6800     78.3900
    346      8.0480    -40.4230     31.3300      0.0100     78.3900
    347      7.2090    -39.9630     29.8980      0.0100     78.3900
    348      2.8000    -41.3780     35.8510      1.7700     78.3900
    349      2.7720    -41.8800     34.8700      0.0100     78.3900
    350      1.4980    -40.9490     36.1980      1.5900     78.3900
    351      0.9850    -41.7390     36.4270      0.0100     78.3900
    352      3.4010    -42.2950     36.9080      1.7700     78.3900
    353      4.3090    -42.8050     36.5070      0.0100     78.3900
    354      2.4480    -43.2100     37.4950      1.5900     78.3900
    355      2.4500    -44.7400     37.1150      2.1000     78.3900
    356      3.7640    -45.3180     37.4560      1.5900     78.3900
    357      1.2630    -45.3770     37.7250      1.5900     78.3900
    358      2.3040    -44.7550     35.5480      1.5900     78.3900
    359      1.0590    -44.4220     34.8940      1.7700     78.3900
    360      0.6530    -43.4600     35.2830      0.0100     78.3900
    361      0.3010    -45.2180     35.0770      0.0100     78.3900
    362      1.2340    -44.2680     33.3710      1.7700     78.3900
    363      0.2830    -43.9640     32.8820      0.0100     78.3900
    364      2.1970    -43.2150     33.1030      1.5900     78.3900
    365      3.0420    -43.5870     32.0340      1.7700     78.3900
    366      2.9930    -42.7610     31.2880      0.0100     78.3900
    367      4.4300    -43.7490     32.4740      1.6800     78.3900
    368      5.5100    -43.5950     31.6650      1.7700     78.3900
    369      6.8530    -42.9100     28.5560      1.6800     78.3900
    370      6.0730    -42.6960     27.9630      0.0100     78.3900
    371      7.7490    -43.1010     28.1450      0.0100     78.3900
    372      5.4670    -43.2720     30.3670      1.6800     78.3900
    373      6.6790    -43.1930     29.8310      1.7700     78.3900
    374      7.8290    -43.3880     30.5550      1.6800     78.3900
    375      8.6870    -43.4070     30.0230      0.0100     78.3900
    376      7.9060    -43.7320     31.8950      1.7700     78.3900
    377      8.9890    -43.9070     32.4620      1.5900     78.3900
    378      6.6120    -43.8260     32.4670      1.7700     78.3900
    379      6.2240    -44.1220     33.7650      1.6800     78.3900
    380      4.9160    -44.0680     33.7210      1.7700     78.3900
    381      4.2550    -44.2450     34.5660      0.0100     78.3900
    382      2.4860    -44.8480     31.4280      1.7700     78.3900
    383      3.2820    -45.5200     31.0400      0.0100     78.3900
    384      1.5600    -44.5350     30.3990      1.5900     78.3900
    385      1.0880    -45.3520     30.1810      0.0100     78.3900
    386      1.8030    -45.4780     32.6260      1.7700     78.3900
    387      2.5830    -45.8910     33.3070      0.0100     78.3900
    388      0.7590    -46.4130     32.2660      1.5900     78.3900
    389      0.8590    -47.8860     32.8170      2.1000     78.3900
    390      2.2680    -48.1890     33.1430      1.5900     78.3900
    391     -0.1280    -48.0210     33.9070      1.5900     78.3900
    392      0.4070    -48.7660     31.5890      1.5900     78.3900
    393      0.1900    -50.1830     31.7830      1.7700     78.3900
    394     -0.9000    -50.3790     31.9070      0.0100     78.3900
    395      0.7070    -50.5800     32.6920      0.0100     78.3900
    396      0.7080    -50.9990     30.5950      1.7700     78.3900
    397      1.8140    -50.9020     30.5030      0.0100     78.3900
    398      0.3850    -52.3960     30.8560      1.5900     78.3900
    399      0.0210    -53.0460     29.6390      1.7700     78.3900
    400      0.7310    -53.9010     29.5360      0.0100     78.3900
    401     -1.3610    -53.5760     29.6430      1.6800     78.3900
    402     -2.3040    -53.0230     30.4750      1.7700     78.3900
    403     -1.9550    -52.2240     31.1330      0.0100     78.3900
    404     -3.5580    -53.4860     30.5050      1.7700     78.3900
    405     -4.2980    -53.0940     31.1990      0.0100     78.3900
    406     -1.7180    -54.6010     28.7690      1.7700     78.3900
    407     -0.8590    -55.0710     28.0070      1.5900     78.3900
    408     -2.9850    -55.0780     28.7760      1.6800     78.3900
    409     -3.8940    -54.5540     29.6210      1.7700     78.3900
    410     -5.1230    -55.0610     29.6430      1.6800     78.3900
    411     -5.3440    -55.8200     29.0270      0.0100     78.3900
    412     -5.8070    -54.7450     30.3000      0.0100     78.3900
    413      0.2410    -52.0690     28.5090      1.7700     78.3900
    414     -0.4920    -52.1690     27.6790      0.0100     78.3900
    415      1.5400    -52.2820     27.9970      1.5900     78.3900
    416      2.2030    -51.6570     28.3250      0.0100     78.3900
    417      0.0560    -50.7310     29.2310      1.7700     78.3900
    418     -1.0250    -50.5860     29.4660      0.0100     78.3900
    419      0.6570    -49.5900     28.5830      1.5900     78.3900
    420     -0.2430    -48.6540     27.6800      2.1000     78.3900
    421     -1.6890    -48.8690     28.0050      1.5900     78.3900
    422      0.2080    -47.2580     27.6800      1.5900     78.3900
    423     -0.0310    -49.2450     26.2410      1.5900     78.3900
    424     -0.8350    -48.7940     25.1210      1.7700     78.3900
    425     -1.2800    -47.7870     25.2850      0.0100     78.3900
    426     -1.6730    -49.5030     24.9530      0.0100     78.3900
    427      0.0050    -48.7230     23.8340      1.7700     78.3900
    428     -0.6250    -48.4520     22.9600      0.0100     78.3900
    429      1.0050    -47.6700     23.9770      1.5900     78.3900
    430      2.2360    -48.1010     23.4090      1.7700     78.3900
    431      2.5520    -47.3160     22.6830      0.0100     78.3900
    432      3.2800    -48.2450     24.4190      1.6800     78.3900
    433      5.2120    -48.4800     25.4350      1.7700     78.3900
    434      4.2740    -48.2610     26.4230      1.6800     78.3900
    435      3.1450    -48.1400     25.7780      1.7700     78.3900
    436      2.1710    -47.9850     26.2450      0.0100     78.3900
    437      7.2650    -48.7630     24.2940      1.6800     78.3900
    438      6.5540    -48.7230     23.1660      1.7700     78.3900
    439      7.1350    -48.8190     22.2400      0.0100     78.3900
    440      5.2340    -48.5890     23.0050      1.6800     78.3900
    441      4.6180    -48.4570     24.1900      1.7700     78.3900
    442      6.6060    -48.6710     25.4790      1.7700     78.3900
    443      7.2710    -48.7870     26.6400      1.6800     78.3900
    444      6.7940    -48.5800     27.5010      0.0100     78.3900
    445      8.2600    -48.6310     26.6580      0.0100     78.3900
    446      1.9720    -49.3910     22.6770      1.7700     78.3900
    447      2.8440    -50.0710     22.6900      0.0100     78.3900
    448      1.5920    -49.1220     21.3400      1.5900     78.3900
    449      1.2080    -49.9360     20.9850      0.0100     78.3900
    450      0.8240    -49.9790     23.4800      1.7700     78.3900
    451      1.2010    -50.3900     24.4470      0.0100     78.3900
    452      0.0280    -50.9190     22.7250      1.5900     78.3900
    453      0.0730    -52.4560     23.0570      2.1000     78.3900
    454     -0.3370    -52.6490     24.4640      1.5900     78.3900
    455     -0.7310    -53.1730     22.0430      1.5900     78.3900
    456      1.6020    -52.8170     22.8760      1.5900     78.3900
    457      2.2230    -52.8550     21.5680      1.7700     78.3900
    458      2.0140    -51.9240     20.9910      0.0100     78.3900
    459      1.8420    -53.7180     20.9780      0.0100     78.3900
    460      3.7490    -53.0150     21.6630      1.7700     78.3900
    461      4.2130    -53.0400     20.6550      0.0100     78.3900
    462      4.3100    -51.8750     22.3680      1.5900     78.3900
    463      5.3450    -52.2970     23.2350      1.7700     78.3900
    464      6.2400    -51.6920     22.9720      0.0100     78.3900
    465      5.0060    -52.0450     24.6480      1.6800     78.3900
    466      5.8660    -52.0180     25.7180      1.7700     78.3900
    467      9.0320    -52.3820     27.0410      1.6800     78.3900
    468      9.5150    -52.2100     27.8960      0.0100     78.3900
    469      9.5620    -52.5430     26.2120      0.0100     78.3900
    470      7.1840    -52.2560     25.6790      1.6800     78.3900
    471      7.7420    -52.1560     26.8850      1.7700     78.3900
    472      7.0500    -51.8300     28.0230      1.6800     78.3900
    473      7.5550    -51.7780     28.8900      0.0100     78.3900
    474      5.6890    -51.5700     28.0920      1.7700     78.3900
    475      5.1490    -51.3040     29.1720      1.5900     78.3900
    476      5.0850    -51.7060     26.8170      1.7700     78.3900
    477      3.7690    -51.5800     26.4500      1.6800     78.3900
    478      3.7590    -51.7790     25.1600      1.7700     78.3900
    479      2.8720    -51.7530     24.5240      0.0100     78.3900
    480      5.6080    -53.7570     22.9390      1.7700     78.3900
    481      5.9390    -54.3200     23.8340      0.0100     78.3900
    482      6.5880    -53.8630     21.9260      1.5900     78.3900
    483      6.5670    -54.7730     21.6000      0.0100     78.3900
    484      4.2380    -54.2370     22.4500      1.7700     78.3900
    485      3.5400    -54.3540     23.3090      0.0100     78.3900
    486      4.2640    -55.3970     21.5830      1.5900     78.3900
    487      4.0230    -56.8290     22.1950      2.1000     78.3900
    488      2.7400    -56.8430     22.9270      1.5900     78.3900
    489      4.1850    -57.8470     21.1320      1.5900     78.3900
    490      5.1870    -56.9680     23.2460      1.5900     78.3900
    491      6.5480    -57.2170     22.8340      1.7700     78.3900
    492      6.9580    -56.3580     22.2590      0.0100     78.3900
    493      6.6080    -58.1150     22.1760      0.0100     78.3900
    494      7.4540    -57.4660     24.0500      1.7700     78.3900
    495      8.4630    -57.8030     23.7200      0.0100     78.3900
    496      7.6560    -56.2170     24.7760      1.5900     78.3900
    497      7.6660    -56.4870     26.1760      1.7700     78.3900
    498      8.6320    -56.0780     26.5560      0.0100     78.3900
    499      6.5350    -55.8300     26.8960      1.6800     78.3900
    500      5.3790    -55.4870     26.2270      1.7700     78.3900
    501      5.3760    -55.6860     25.1560      0.0100     78.3900
    502      4.3480    -54.9030     26.8550      1.7700     78.3900
    503      3.4380    -54.5910     26.3350      0.0100     78.3900
    504      6.6050    -55.6490     28.2740      1.7700     78.3900
    505      7.6070    -56.0470     28.8870      1.5900     78.3900
    506      5.5870    -55.0470     28.9240      1.6800     78.3900
    507      4.4770    -54.6820     28.2570      1.7700     78.3900
    508      3.4910    -54.1080     28.9340      1.6800     78.3900
    509      3.6070    -53.9120     29.9120      0.0100     78.3900
    510      2.7480    -53.6290     28.4540      0.0100     78.3900
    511      7.6690    -58.0000     26.3590      1.7700     78.3900
    512      7.1150    -58.3090     27.2730      0.0100     78.3900
    513      9.0000    -58.4980     26.4170      1.5900     78.3900
    514      8.9740    -59.4650     26.3230      0.0100     78.3900
    515      6.9230    -58.4490     25.1060      1.7700     78.3900
    516      5.8330    -58.2740     25.2320      0.0100     78.3900
    517      7.1780    -59.8090     24.7120      1.5900     78.3900
    518      6.7810    -60.4240     25.3550      0.0100     78.3900

     ----------------------------
     INPUT FOR TESSERA DEFINITION
     ----------------------------
     NTSALL  =        60     MTHALL  =         4
     MTHAUT  =         0     AUTFRE  =    2.0000
     NTSFRZ  =        60     KEEPSM  =         0
     AREAKP  =   10.0000     BONDRY  =    1.0000
     AREATL  =    0.0100

     SPHERE     INITS       METHOD
          1        60       FIXPVA
          2        60       FIXPVA
          3        60       FIXPVA
          4        60       FIXPVA
          5        60       FIXPVA
          6        60       FIXPVA
          7        60       FIXPVA
          8        60       FIXPVA
          9        60       FIXPVA
         10        60       FIXPVA
         11        60       FIXPVA
         12        60       FIXPVA
         13        60       FIXPVA
         14        60       FIXPVA
         15        60       FIXPVA
         16        60       FIXPVA
         17        60       FIXPVA
         18        60       FIXPVA
         19        60       FIXPVA
         20        60       FIXPVA
         21        60       FIXPVA
         22        60       FIXPVA
         23        60       FIXPVA
         24        60       FIXPVA
         25        60       FIXPVA
         26        60       FIXPVA
         27        60       FIXPVA
         28        60       FIXPVA
         29        60       FIXPVA
         30        60       FIXPVA
         31        60       FIXPVA
         32        60       FIXPVA
         33        60       FIXPVA
         34        60       FIXPVA
         35        60       FIXPVA
         36        60       FIXPVA
         37        60       FIXPVA
         38        60       FIXPVA
         39        60       FIXPVA
         40        60       FIXPVA
         41        60       FIXPVA
         42        60       FIXPVA
         43        60       FIXPVA
         44        60       FIXPVA
         45        60       FIXPVA
         46        60       FIXPVA
         47        60       FIXPVA
         48        60       FIXPVA
         49        60       FIXPVA
         50        60       FIXPVA
         51        60       FIXPVA
         52        60       FIXPVA
         53        60       FIXPVA
         54        60       FIXPVA
         55        60       FIXPVA
         56        60       FIXPVA
         57        60       FIXPVA
         58        60       FIXPVA
         59        60       FIXPVA
         60        60       FIXPVA
         61        60       FIXPVA
         62        60       FIXPVA
         63        60       FIXPVA
         64        60       FIXPVA
         65        60       FIXPVA
         66        60       FIXPVA
         67        60       FIXPVA
         68        60       FIXPVA
         69        60       FIXPVA
         70        60       FIXPVA
         71        60       FIXPVA
         72        60       FIXPVA
         73        60       FIXPVA
         74        60       FIXPVA
         75        60       FIXPVA
         76        60       FIXPVA
         77        60       FIXPVA
         78        60       FIXPVA
         79        60       FIXPVA
         80        60       FIXPVA
         81        60       FIXPVA
         82        60       FIXPVA
         83        60       FIXPVA
         84        60       FIXPVA
         85        60       FIXPVA
         86        60       FIXPVA
         87        60       FIXPVA
         88        60       FIXPVA
         89        60       FIXPVA
         90        60       FIXPVA
         91        60       FIXPVA
         92        60       FIXPVA
         93        60       FIXPVA
         94        60       FIXPVA
         95        60       FIXPVA
         96        60       FIXPVA
         97        60       FIXPVA
         98        60       FIXPVA
         99        60       FIXPVA
        100        60       FIXPVA
        101        60       FIXPVA
        102        60       FIXPVA
        103        60       FIXPVA
        104        60       FIXPVA
        105        60       FIXPVA
        106        60       FIXPVA
        107        60       FIXPVA
        108        60       FIXPVA
        109        60       FIXPVA
        110        60       FIXPVA
        111        60       FIXPVA
        112        60       FIXPVA
        113        60       FIXPVA
        114        60       FIXPVA
        115        60       FIXPVA
        116        60       FIXPVA
        117        60       FIXPVA
        118        60       FIXPVA
        119        60       FIXPVA
        120        60       FIXPVA
        121        60       FIXPVA
        122        60       FIXPVA
        123        60       FIXPVA
        124        60       FIXPVA
        125        60       FIXPVA
        126        60       FIXPVA
        127        60       FIXPVA
        128        60       FIXPVA
        129        60       FIXPVA
        130        60       FIXPVA
        131        60       FIXPVA
        132        60       FIXPVA
        133        60       FIXPVA
        134        60       FIXPVA
        135        60       FIXPVA
        136        60       FIXPVA
        137        60       FIXPVA
        138        60       FIXPVA
        139        60       FIXPVA
        140        60       FIXPVA
        141        60       FIXPVA
        142        60       FIXPVA
        143        60       FIXPVA
        144        60       FIXPVA
        145        60       FIXPVA
        146        60       FIXPVA
        147        60       FIXPVA
        148        60       FIXPVA
        149        60       FIXPVA
        150        60       FIXPVA
        151        60       FIXPVA
        152        60       FIXPVA
        153        60       FIXPVA
        154        60       FIXPVA
        155        60       FIXPVA
        156        60       FIXPVA
        157        60       FIXPVA
        158        60       FIXPVA
        159        60       FIXPVA
        160        60       FIXPVA
        161        60       FIXPVA
        162        60       FIXPVA
        163        60       FIXPVA
        164        60       FIXPVA
        165        60       FIXPVA
        166        60       FIXPVA
        167        60       FIXPVA
        168        60       FIXPVA
        169        60       FIXPVA
        170        60       FIXPVA
        171        60       FIXPVA
        172        60       FIXPVA
        173        60       FIXPVA
        174        60       FIXPVA
        175        60       FIXPVA
        176        60       FIXPVA
        177        60       FIXPVA
        178        60       FIXPVA
        179        60       FIXPVA
        180        60       FIXPVA
        181        60       FIXPVA
        182        60       FIXPVA
        183        60       FIXPVA
        184        60       FIXPVA
        185        60       FIXPVA
        186        60       FIXPVA
        187        60       FIXPVA
        188        60       FIXPVA
        189        60       FIXPVA
        190        60       FIXPVA
        191        60       FIXPVA
        192        60       FIXPVA
        193        60       FIXPVA
        194        60       FIXPVA
        195        60       FIXPVA
        196        60       FIXPVA
        197        60       FIXPVA
        198        60       FIXPVA
        199        60       FIXPVA
        200        60       FIXPVA
        201        60       FIXPVA
        202        60       FIXPVA
        203        60       FIXPVA
        204        60       FIXPVA
        205        60       FIXPVA
        206        60       FIXPVA
        207        60       FIXPVA
        208        60       FIXPVA
        209        60       FIXPVA
        210        60       FIXPVA
        211        60       FIXPVA
        212        60       FIXPVA
        213        60       FIXPVA
        214        60       FIXPVA
        215        60       FIXPVA
        216        60       FIXPVA
        217        60       FIXPVA
        218        60       FIXPVA
        219        60       FIXPVA
        220        60       FIXPVA
        221        60       FIXPVA
        222        60       FIXPVA
        223        60       FIXPVA
        224        60       FIXPVA
        225        60       FIXPVA
        226        60       FIXPVA
        227        60       FIXPVA
        228        60       FIXPVA
        229        60       FIXPVA
        230        60       FIXPVA
        231        60       FIXPVA
        232        60       FIXPVA
        233        60       FIXPVA
        234        60       FIXPVA
        235        60       FIXPVA
        236        60       FIXPVA
        237        60       FIXPVA
        238        60       FIXPVA
        239        60       FIXPVA
        240        60       FIXPVA
        241        60       FIXPVA
        242        60       FIXPVA
        243        60       FIXPVA
        244        60       FIXPVA
        245        60       FIXPVA
        246        60       FIXPVA
        247        60       FIXPVA
        248        60       FIXPVA
        249        60       FIXPVA
        250        60       FIXPVA
        251        60       FIXPVA
        252        60       FIXPVA
        253        60       FIXPVA
        254        60       FIXPVA
        255        60       FIXPVA
        256        60       FIXPVA
        257        60       FIXPVA
        258        60       FIXPVA
        259        60       FIXPVA
        260        60       FIXPVA
        261        60       FIXPVA
        262        60       FIXPVA
        263        60       FIXPVA
        264        60       FIXPVA
        265        60       FIXPVA
        266        60       FIXPVA
        267        60       FIXPVA
        268        60       FIXPVA
        269        60       FIXPVA
        270        60       FIXPVA
        271        60       FIXPVA
        272        60       FIXPVA
        273        60       FIXPVA
        274        60       FIXPVA
        275        60       FIXPVA
        276        60       FIXPVA
        277        60       FIXPVA
        278        60       FIXPVA
        279        60       FIXPVA
        280        60       FIXPVA
        281        60       FIXPVA
        282        60       FIXPVA
        283        60       FIXPVA
        284        60       FIXPVA
        285        60       FIXPVA
        286        60       FIXPVA
        287        60       FIXPVA
        288        60       FIXPVA
        289        60       FIXPVA
        290        60       FIXPVA
        291        60       FIXPVA
        292        60       FIXPVA
        293        60       FIXPVA
        294        60       FIXPVA
        295        60       FIXPVA
        296        60       FIXPVA
        297        60       FIXPVA
        298        60       FIXPVA
        299        60       FIXPVA
        300        60       FIXPVA
        301        60       FIXPVA
        302        60       FIXPVA
        303        60       FIXPVA
        304        60       FIXPVA
        305        60       FIXPVA
        306        60       FIXPVA
        307        60       FIXPVA
        308        60       FIXPVA
        309        60       FIXPVA
        310        60       FIXPVA
        311        60       FIXPVA
        312        60       FIXPVA
        313        60       FIXPVA
        314        60       FIXPVA
        315        60       FIXPVA
        316        60       FIXPVA
        317        60       FIXPVA
        318        60       FIXPVA
        319        60       FIXPVA
        320        60       FIXPVA
        321        60       FIXPVA
        322        60       FIXPVA
        323        60       FIXPVA
        324        60       FIXPVA
        325        60       FIXPVA
        326        60       FIXPVA
        327        60       FIXPVA
        328        60       FIXPVA
        329        60       FIXPVA
        330        60       FIXPVA
        331        60       FIXPVA
        332        60       FIXPVA
        333        60       FIXPVA
        334        60       FIXPVA
        335        60       FIXPVA
        336        60       FIXPVA
        337        60       FIXPVA
        338        60       FIXPVA
        339        60       FIXPVA
        340        60       FIXPVA
        341        60       FIXPVA
        342        60       FIXPVA
        343        60       FIXPVA
        344        60       FIXPVA
        345        60       FIXPVA
        346        60       FIXPVA
        347        60       FIXPVA
        348        60       FIXPVA
        349        60       FIXPVA
        350        60       FIXPVA
        351        60       FIXPVA
        352        60       FIXPVA
        353        60       FIXPVA
        354        60       FIXPVA
        355        60       FIXPVA
        356        60       FIXPVA
        357        60       FIXPVA
        358        60       FIXPVA
        359        60       FIXPVA
        360        60       FIXPVA
        361        60       FIXPVA
        362        60       FIXPVA
        363        60       FIXPVA
        364        60       FIXPVA
        365        60       FIXPVA
        366        60       FIXPVA
        367        60       FIXPVA
        368        60       FIXPVA
        369        60       FIXPVA
        370        60       FIXPVA
        371        60       FIXPVA
        372        60       FIXPVA
        373        60       FIXPVA
        374        60       FIXPVA
        375        60       FIXPVA
        376        60       FIXPVA
        377        60       FIXPVA
        378        60       FIXPVA
        379        60       FIXPVA
        380        60       FIXPVA
        381        60       FIXPVA
        382        60       FIXPVA
        383        60       FIXPVA
        384        60       FIXPVA
        385        60       FIXPVA
        386        60       FIXPVA
        387        60       FIXPVA
        388        60       FIXPVA
        389        60       FIXPVA
        390        60       FIXPVA
        391        60       FIXPVA
        392        60       FIXPVA
        393        60       FIXPVA
        394        60       FIXPVA
        395        60       FIXPVA
        396        60       FIXPVA
        397        60       FIXPVA
        398        60       FIXPVA
        399        60       FIXPVA
        400        60       FIXPVA
        401        60       FIXPVA
        402        60       FIXPVA
        403        60       FIXPVA
        404        60       FIXPVA
        405        60       FIXPVA
        406        60       FIXPVA
        407        60       FIXPVA
        408        60       FIXPVA
        409        60       FIXPVA
        410        60       FIXPVA
        411        60       FIXPVA
        412        60       FIXPVA
        413        60       FIXPVA
        414        60       FIXPVA
        415        60       FIXPVA
        416        60       FIXPVA
        417        60       FIXPVA
        418        60       FIXPVA
        419        60       FIXPVA
        420        60       FIXPVA
        421        60       FIXPVA
        422        60       FIXPVA
        423        60       FIXPVA
        424        60       FIXPVA
        425        60       FIXPVA
        426        60       FIXPVA
        427        60       FIXPVA
        428        60       FIXPVA
        429        60       FIXPVA
        430        60       FIXPVA
        431        60       FIXPVA
        432        60       FIXPVA
        433        60       FIXPVA
        434        60       FIXPVA
        435        60       FIXPVA
        436        60       FIXPVA
        437        60       FIXPVA
        438        60       FIXPVA
        439        60       FIXPVA
        440        60       FIXPVA
        441        60       FIXPVA
        442        60       FIXPVA
        443        60       FIXPVA
        444        60       FIXPVA
        445        60       FIXPVA
        446        60       FIXPVA
        447        60       FIXPVA
        448        60       FIXPVA
        449        60       FIXPVA
        450        60       FIXPVA
        451        60       FIXPVA
        452        60       FIXPVA
        453        60       FIXPVA
        454        60       FIXPVA
        455        60       FIXPVA
        456        60       FIXPVA
        457        60       FIXPVA
        458        60       FIXPVA
        459        60       FIXPVA
        460        60       FIXPVA
        461        60       FIXPVA
        462        60       FIXPVA
        463        60       FIXPVA
        464        60       FIXPVA
        465        60       FIXPVA
        466        60       FIXPVA
        467        60       FIXPVA
        468        60       FIXPVA
        469        60       FIXPVA
        470        60       FIXPVA
        471        60       FIXPVA
        472        60       FIXPVA
        473        60       FIXPVA
        474        60       FIXPVA
        475        60       FIXPVA
        476        60       FIXPVA
        477        60       FIXPVA
        478        60       FIXPVA
        479        60       FIXPVA
        480        60       FIXPVA
        481        60       FIXPVA
        482        60       FIXPVA
        483        60       FIXPVA
        484        60       FIXPVA
        485        60       FIXPVA
        486        60       FIXPVA
        487        60       FIXPVA
        488        60       FIXPVA
        489        60       FIXPVA
        490        60       FIXPVA
        491        60       FIXPVA
        492        60       FIXPVA
        493        60       FIXPVA
        494        60       FIXPVA
        495        60       FIXPVA
        496        60       FIXPVA
        497        60       FIXPVA
        498        60       FIXPVA
        499        60       FIXPVA
        500        60       FIXPVA
        501        60       FIXPVA
        502        60       FIXPVA
        503        60       FIXPVA
        504        60       FIXPVA
        505        60       FIXPVA
        506        60       FIXPVA
        507        60       FIXPVA
        508        60       FIXPVA
        509        60       FIXPVA
        510        60       FIXPVA
        511        60       FIXPVA
        512        60       FIXPVA
        513        60       FIXPVA
        514        60       FIXPVA
        515        60       FIXPVA
        516        60       FIXPVA
        517        60       FIXPVA
        518        60       FIXPVA

     ------------------------------
      FIXPVA TESSELLATION FOR PCM
         PEIFENG SU AND HUI LI
     UNIVERSITY OF NEBRASKA-LINCOLN
     ------------------------------


 PCM DIMENSIONS: MXSP=   518, MXTS=     20720, MEMORY=        212901

     INPUT FOR CAVITY DEFINITION 
     ---------------------------
   ATOM               COORDINATES                RADIUS       EPS
      1      4.5830    -51.8970     39.7500      0.0100     78.3900
      2      5.1910    -52.2490     39.0720      1.5900     78.3900
      3      6.2150    -52.9690     39.7730      1.7700     78.3900
      4      5.7390    -53.7530     40.4060      0.0100     78.3900
      5      6.7620    -52.2730     40.4480      0.0100     78.3900
      6      7.2180    -53.6370     38.8290      1.7700     78.3900
      7      8.0180    -54.1400     39.4160      0.0100     78.3900
      8      6.5510    -54.6630     38.0380      1.5900     78.3900
      9      7.0940    -54.6650     36.7280      1.7700     78.3900
     10      7.4420    -55.7030     36.5250      0.0100     78.3900
     11      6.0840    -54.3020     35.7280      1.6800     78.3900
     12      6.1750    -54.5150     34.3800      1.7700     78.3900
     13      7.9070    -55.7390     31.6490      1.6800     78.3900
     14      8.7590    -56.0650     32.0540      0.0100     78.3900
     15      7.7690    -55.8480     30.6600      0.0100     78.3900
     16      7.2140    -55.0740     33.7390      1.6800     78.3900
     17      6.9980    -55.1980     32.4330      1.7700     78.3900
     18      5.8460    -54.7810     31.8210      1.6800     78.3900
     19      5.7570    -54.9190     30.8270      0.0100     78.3900
     20      4.7600    -54.1910     32.4540      1.7700     78.3900
     21      3.7650    -53.8490     31.8100      1.5900     78.3900
     22      4.9820    -54.0620     33.8520      1.7700     78.3900
     23      4.1620    -53.5570     34.8510      1.6800     78.3900
     24      4.8570    -53.7200     35.9530      1.7700     78.3900
     25      4.5320    -53.4360     36.9580      0.0100     78.3900
     26      8.2840    -53.7310     36.7220      1.7700     78.3900
     27      8.4390    -53.2360     35.7410      0.0100     78.3900
     28      9.4460    -54.4520     37.0880      1.5900     78.3900
     29     10.1550    -53.8060     37.1860      0.0100     78.3900
     30      7.8940    -52.7210     37.7940      1.7700     78.3900
     31      7.1030    -52.0330     37.4130      0.0100     78.3900
     32      9.0140    -52.0280     38.3940      1.5900     78.3900
     33      9.4210    -50.6000     37.8710      2.1000     78.3900
     34      8.2010    -49.7750     37.7650      1.5900     78.3900
     35     10.4980    -50.0830     38.7440      1.5900     78.3900
     36      9.9930    -50.8270     36.4290      1.5900     78.3900
     37     11.1920    -51.5900     36.1700      1.7700     78.3900
     38     11.1560    -52.5860     36.6600      0.0100     78.3900
     39     12.0810    -51.0520     36.5800      0.0100     78.3900
     40     11.3920    -51.8080     34.6570      1.7700     78.3900
     41     12.3400    -52.3520     34.4570      0.0100     78.3900
     42     10.3030    -52.6250     34.1290      1.5900     78.3900
     43      9.9220    -52.1490     32.8420      1.7700     78.3900
     44     10.0370    -53.0230     32.1600      0.0100     78.3900
     45      8.5060    -51.6670     32.7980      1.6800     78.3900
     46      7.8690    -51.2740     33.9490      1.7700     78.3900
     47      8.4680    -51.3410     34.8530      0.0100     78.3900
     48      7.8490    -51.6290     31.5840      1.7700     78.3900
     49      8.3850    -51.9510     30.5310      1.5900     78.3900
     50      6.5380    -51.2120     31.6430      1.6800     78.3900
     51      6.0060    -51.1900     30.7810      0.0100     78.3900
     52      5.8270    -50.8590     32.7680      1.7700     78.3900
     53      4.6440    -50.5570     32.6790      1.5900     78.3900
     54      6.5860    -50.8910     33.9820      1.7700     78.3900
     55      6.0870    -50.6350     34.9140      0.0100     78.3900
     56     10.9310    -51.0850     32.4420      1.7700     78.3900
     57     10.4610    -50.2930     31.8330      0.0100     78.3900
     58     12.0160    -51.6630     31.7360      1.5900     78.3900
     59     12.6840    -50.9660     31.6320      0.0100     78.3900
     60     11.3710    -50.5370     33.7930      1.7700     78.3900
     61     10.5700    -49.8850     34.2070      0.0100     78.3900
     62     12.6740    -49.9060     33.8040      1.5900     78.3900
     63     12.7760    -48.3630     33.4660      2.1000     78.3900
     64     11.6350    -47.6560     34.0860      1.5900     78.3900
     65     14.1320    -47.9030     33.8350      1.5900     78.3900
     66     12.6460    -48.2930     31.8970      1.5900     78.3900
     67     12.1400    -47.0990     31.2460      1.7700     78.3900
     68     12.9880    -46.4930     30.8560      0.0100     78.3900
     69     11.5580    -46.4450     31.9380      0.0100     78.3900
     70     11.2160    -47.4500     30.0710      1.7700     78.3900
     71     11.7960    -47.9220     29.2520      0.0100     78.3900
     72     10.2230    -48.4220     30.4890      1.5900     78.3900
     73      8.9900    -48.1440     29.8750      1.7700     78.3900
[...]
   466   15   6.0   0.00    0.0    0.000000    0.705490    0.702182
   467   15   7.0  19.38   37.9   -0.179409   -0.986866   -0.994254
   468   15   1.0   0.00    0.0    0.000000    0.446767    0.444835
   469   15   1.0   0.00    0.0    0.000000    0.448591    0.449629
   470   15   7.0   4.50    8.8    0.082893   -0.748878   -0.750542
   471   15   6.0   0.35    0.6    0.006061    0.996383    0.992480
   472   15   7.0   0.00    0.0   -0.000000   -0.927475   -1.011211
   473   15   1.0   0.00    0.0    0.000000    0.450794    0.518482
   474   15   6.0   0.00    0.0    0.000000    0.897986    0.906741
   475   15   8.0   1.23    2.7    0.058029   -0.749668   -0.731368
   476   15   6.0   0.00    0.0    0.000000   -0.044233   -0.025928
   477   15   7.0   0.01    0.0    0.000336   -0.552757   -0.559824
   478   15   6.0   2.48    4.4    0.016544    0.265843    0.256280
   479   15   1.0   0.00    0.0    0.000000    0.257333    0.289004
   480   15   6.0   0.00    0.0    0.000000    0.134915    0.109018
   481   15   1.0   0.00    0.0    0.000000    0.193071    0.226188
   482   15   8.0  18.56   40.6    0.065158   -0.832941   -0.846357
   483   15   1.0   0.00    0.0    0.000000    0.502466    0.523295
   484   15   6.0   0.60    1.1   -0.001542    0.139164    0.107357
   485   15   1.0   0.00    0.0    0.000000    0.234380    0.237462
   486   15   8.0   5.03   11.0    0.065107   -0.791664   -0.796572
   487   15  15.0   7.00    8.8    0.092920    1.605950    1.648502
   488   15   8.0  15.31   33.5    0.358335   -0.892597   -0.888026
   489   15   8.0  17.25   37.7    0.345289   -0.893559   -0.886302
   490   15   8.0   0.45    1.0    0.011888   -0.980633   -0.790522
   491   16   6.0  10.46   18.5   -0.064717    0.215268   -0.013502
   492   16   1.0   0.00    0.0    0.000000    0.149122    0.162687
   493   16   1.0   0.00    0.0    0.000000    0.244256    0.226715
   494   16   6.0   7.12   12.6   -0.045265    0.085059    0.145584
   495   16   1.0   0.00    0.0    0.000000    0.249638    0.222967
   496   16   8.0   3.97    8.7    0.051727   -0.725269   -0.734437
   497   16   6.0   3.30    5.8   -0.040251    0.415634    0.415543
   498   16   1.0   0.00    0.0    0.000000    0.254731    0.242133
   499   16   7.0   0.00    0.0    0.000000   -0.822195   -0.831635
   500   16   6.0   1.01    1.8    0.000887    0.192508    0.170112
   501   16   1.0   0.00    0.0    0.000000    0.292425    0.319494
   502   16   6.0   7.99   14.1   -0.028384   -0.384695   -0.402858
   503   16   1.0   0.00    0.0    0.000000    0.279665    0.283943
   504   16   6.0   2.62    4.6   -0.004751    1.062045    1.067702
   505   16   8.0   8.75   19.1    0.135904   -0.803477   -0.775397
   506   16   7.0   2.10    4.1    0.020929   -0.865636   -0.860005
   507   16   6.0   1.85    3.3    0.002311    0.714937    0.731876
   508   16   7.0   5.13   10.0    0.049303   -0.929907   -1.055500
   509   16   1.0   0.00    0.0    0.000000    0.462990    0.497855
   510   16   1.0   0.00    0.0    0.000000    0.446500    0.499779
   511   16   6.0   6.48   11.4   -0.040393    0.124063    0.124581
   512   16   1.0   0.00    0.0    0.000000    0.225162    0.225315
   513   16   8.0  20.47   44.7    0.040368   -0.842509   -0.846349
   514   16   1.0   0.00    0.0    0.000000    0.504731    0.506901
   515   16   6.0   5.78   10.2   -0.039438    0.167014    0.148645
   516   16   1.0   0.00    0.0    0.000000    0.218279    0.221838
   517   16   8.0  22.43   49.0   -0.016542   -0.850695   -0.852038
   518   16   1.0   0.00    0.0    0.000000    0.508685    0.509466

 Done with FMO properties.
 CPU     0: STEP CPU TIME=     0.01 TOTAL CPU TIME=      36907.6 (    615.1 MIN)
 TOTAL WALL CLOCK TIME=      93418.2 SECONDS, CPU UTILIZATION IS    39.51%
 CPU     0: STEP CPU TIME=     0.00 TOTAL CPU TIME=      36907.6 (    615.1 MIN)
 TOTAL WALL CLOCK TIME=      93418.2 SECONDS, CPU UTILIZATION IS    39.51%

 Total timing statistics in pairs (CPU,wall) for each rank, sec

    Rank   total     SCF    corr     DFT    CPHF     EFP    solv     ESP    geom
 -------------------------------------------------------------------------------
       1   36907.6   9192.0  13616.6      0.0    0.0   0.0  347.8 13009.1    0.0
       1   93418.3  19999.5  43564.3      0.0    0.0   0.0  990.8 26749.0    0.0
       2   36844.7   9122.9  13559.0      0.0    0.0   0.0  350.5 13099.8    0.0
       2   93418.3  19983.5  43561.4      0.0    0.0   0.0  991.1 26747.9    0.0
       3   37458.1   9143.8  13896.2      0.0    0.0   0.0  350.4 13306.7    0.0
       3   93418.3  19983.6  43561.3      0.0    0.0   0.0  991.2 26748.1    0.0
       4   37985.9   9171.1  14160.1      0.0    0.0   0.0  350.8 13551.5    0.0
       4   93418.3  19985.3  43561.3      0.0    0.0   0.0  989.0 26747.9    0.0
       5   37501.1   9210.4  13911.6      0.0    0.0   0.0  348.4 13265.7    0.0
       5   93418.3  19983.9  43562.5      0.0    0.0   0.0  990.7 26748.4    0.0
       6   38727.6   9327.0  15138.2      0.0    0.0   0.0  349.8 13185.7    0.0
       6   93418.3  19985.1  43561.3      0.0    0.0   0.0  989.0 26748.3    0.0
       7   37997.7   9360.7  14110.3      0.0    0.0   0.0  351.2 13441.2    0.0
       7   93418.3  19985.3  43561.3      0.0    0.0   0.0  989.3 26748.1    0.0
       8   39114.0   9341.0  14898.0      0.0    0.0   0.0  351.8 13757.8    0.0
       8   93418.3  19985.4  43561.3      0.0    0.0   0.0  988.1 26748.1    0.0
       9   37626.9   9289.4  14302.8      0.0    0.0   0.0  345.2 12958.0    0.0
       9   93418.3  19985.8  43562.4      0.0    0.0   0.0  989.0 26747.9    0.0
      10   37587.7   9157.8  14364.9      0.0    0.0   0.0  347.1 13001.2    0.0
      10   93418.3  19985.7  43561.3      0.0    0.0   0.0  989.1 26747.6    0.0
      11   37018.9   9210.9  13942.1      0.0    0.0   0.0  347.0 12811.9    0.0
      11   93418.3  19986.4  43561.2      0.0    0.0   0.0  988.4 26747.5    0.0
      12   37095.9   9182.7  13812.2      0.0    0.0   0.0  346.6 13028.4    0.0
      12   93418.3  19986.2  43563.9      0.0    0.0   0.0  987.4 26747.3    0.0
      13   36345.1   9221.4  13118.9      0.0    0.0   0.0  344.7 12935.3    0.0
      13   93418.3  19987.1  43561.3      0.0    0.0   0.0  988.0 26747.5    0.0
      14   39411.7   9386.9  15555.6      0.0    0.0   0.0  348.9 13390.8    0.0
      14   93418.3  19986.6  43561.2      0.0    0.0   0.0  987.5 26747.5    0.0
      15   38254.9   9373.6  14768.2      0.0    0.0   0.0  347.3 13053.6    0.0
      15   93418.3  19986.5  43561.2      0.0    0.0   0.0  987.6 26747.4    0.0
      16   38798.2   9311.1  15071.8      0.0    0.0   0.0  346.2 13354.9    0.0
      16   93418.3  19987.4  43561.1      0.0    0.0   0.0  985.9 26747.3    0.0
averaged   37792.2   9250.2  14264.2      0.0    0.0   0.0  348.4 13197.0    0.0
averaged   93418.3  19986.4  43561.8      0.0    0.0   0.0  988.9 26747.9    0.0

  FMO  timing statistics in pairs (CPU,wall) for each rank, sec

    Rank  FMOini FMOscf1  FMOdm1 FMOsyn1 FMOscf2  FMOes2 FMOsyn2 FMOscf3 FMOsyn3
 -------------------------------------------------------------------------------
       1    3.5   12892.8    0.5    0.0   23475.0     535.6    0.0    0.0    0.0
       1    9.0   27444.4    3.0    0.0   64858.0    1103.4    0.0    0.0    0.0
       2    2.6   13042.9    0.1    0.0   23288.3     510.7    0.0    0.0    0.0
       2    9.0   27444.3    3.0    0.0   64863.5    1098.0    0.0    0.0    0.0
       3    2.9   13086.0    0.2    0.0   23810.5     558.5    0.0    0.0    0.0
       3    9.0   27444.4    3.0    0.0   64865.1    1096.3    0.0    0.0    0.0
       4    2.6   13277.3    0.1    0.0   24154.1     551.8    0.0    0.0    0.0
       4    9.0   27444.4    3.0    0.0   64865.3    1096.1    0.0    0.0    0.0
       5    3.1   13037.7    0.3    0.0   23897.0     563.0    0.0    0.0    0.0
       5    9.0   27444.4    3.0    0.0   64863.7    1097.7    0.0    0.0    0.0
       6    2.7   13110.0    0.1    0.0   25089.1     525.7    0.0    0.0    0.0
       6    9.0   27444.4    3.0    0.0   64864.9    1096.5    0.0    0.0    0.0
       7    2.9   13405.9    0.2    0.0   24057.8     530.9    0.0    0.0    0.0
       7    9.0   27444.4    3.0    0.0   64863.3    1098.2    0.0    0.0    0.0
       8    2.4   13625.5    0.2    0.0   24919.2     566.7    0.0    0.0    0.0
       8    9.0   27444.4    3.0    0.0   64865.0    1096.4    0.0    0.0    0.0
       9    3.0   12878.9    0.4    0.0   24212.1     532.5    0.0    0.0    0.0
       9    9.0   27444.4    3.0    0.0   64866.3    1095.1    0.0    0.0    0.0
      10    2.4   12851.8    0.1    0.0   24212.0     521.3    0.0    0.0    0.0
      10    9.0   27444.4    3.0    0.0   64867.1    1094.3    0.0    0.0    0.0
      11    2.6   12731.3    0.2    0.0   23774.0     510.8    0.0    0.0    0.0
      11    9.0   27444.4    3.0    0.0   64865.6    1095.8    0.0    0.0    0.0
      12    2.3   12991.6    0.1    0.0   23569.8     532.2    0.0    0.0    0.0
      12    9.0   27444.4    3.0    0.0   64866.3    1095.2    0.0    0.0    0.0
      13    2.8   13144.4    0.3    0.0   22668.9     528.7    0.0    0.0    0.0
      13    9.0   27444.4    3.0    0.0   64864.3    1097.1    0.0    0.0    0.0
      14    2.3   13398.2    0.1    0.0   25475.6     535.5    0.0    0.0    0.0
      14    9.0   27444.4    3.0    0.0   64870.7    1090.7    0.0    0.0    0.0
      15    2.6   13016.6    0.2    0.0   24719.0     516.5    0.0    0.0    0.0
      15    9.0   27444.4    3.0    0.0   64865.7    1095.8    0.0    0.0    0.0
      16    2.3   13383.0    0.1    0.0   24892.4     520.4    0.0    0.0    0.0
      16    9.0   27444.4    3.0    0.0   64865.8    1095.7    0.0    0.0    0.0
averaged    2.7   13117.1    0.2    0.0   24138.4     533.8    0.0    0.0    0.0
averaged    9.0   27444.4    3.0    0.0   64865.0    1096.4    0.0    0.0    0.0
             62797430  WORDS OF DYNAMIC MEMORY USED
 EXECUTION OF GAMESS TERMINATED NORMALLY Sun Dec  8 10:25:50 2019
 DDI: 263640 bytes (0.3 MB / 0 MWords) used by master data server.

 ----------------------------------------
 CPU timing information for all processes
 ========================================
 0: 36054.313 + 853.306 = 36907.619
 1: 36085.397 + 759.324 = 36844.722
 2: 36643.103 + 815.26 = 37458.129
 3: 37188.997 + 796.953 = 37985.951
 4: 36662.68 + 839.43 = 37501.112
 5: 37885.894 + 841.745 = 38727.639
 6: 37165.786 + 831.922 = 37997.708
 7: 38288.172 + 825.906 = 39114.78
 8: 36773.254 + 853.676 = 37626.930
 9: 36803.546 + 784.193 = 37587.739
 10: 36226.942 + 792.19 = 37018.962
 11: 36339.546 + 756.430 = 37095.976
 12: 35569.233 + 775.904 = 36345.137
 13: 38563.676 + 848.80 = 39411.756
 14: 37430.298 + 824.663 = 38254.961
 15: 37968.530 + 829.723 = 38798.253
 ----------------------------------------
 ddikick.x: exited gracefully.
unset echo
----- accounting info -----
Files used on the master node gollum082.lsa.umich.edu were:
-rw-r--r-- 1 hazwong frank    25665 Dec  7 08:28 /scratch/hazwong/824970/28SR_5/usrc/28SR_5_fmo_input.F05
-rw-r--r-- 1 hazwong frank      634 Dec  8 10:25 /scratch/hazwong/824970/28SR_5/usrc/28SR_5_fmo_input.F06.001
-rw-r--r-- 1 hazwong frank      634 Dec  8 10:25 /scratch/hazwong/824970/28SR_5/usrc/28SR_5_fmo_input.F06.002
-rw-r--r-- 1 hazwong frank      634 Dec  8 10:25 /scratch/hazwong/824970/28SR_5/usrc/28SR_5_fmo_input.F06.003
-rw-r--r-- 1 hazwong frank      634 Dec  8 10:25 /scratch/hazwong/824970/28SR_5/usrc/28SR_5_fmo_input.F06.004
-rw-r--r-- 1 hazwong frank      634 Dec  8 10:25 /scratch/hazwong/824970/28SR_5/usrc/28SR_5_fmo_input.F06.005
-rw-r--r-- 1 hazwong frank      634 Dec  8 10:25 /scratch/hazwong/824970/28SR_5/usrc/28SR_5_fmo_input.F06.006
-rw-r--r-- 1 hazwong frank      634 Dec  8 10:25 /scratch/hazwong/824970/28SR_5/usrc/28SR_5_fmo_input.F06.007
-rw-r--r-- 1 hazwong frank      634 Dec  8 10:25 /scratch/hazwong/824970/28SR_5/usrc/28SR_5_fmo_input.F06.008
-rw-r--r-- 1 hazwong frank      634 Dec  8 10:25 /scratch/hazwong/824970/28SR_5/usrc/28SR_5_fmo_input.F06.009
-rw-r--r-- 1 hazwong frank      634 Dec  8 10:25 /scratch/hazwong/824970/28SR_5/usrc/28SR_5_fmo_input.F06.010
-rw-r--r-- 1 hazwong frank      634 Dec  8 10:25 /scratch/hazwong/824970/28SR_5/usrc/28SR_5_fmo_input.F06.011
-rw-r--r-- 1 hazwong frank      634 Dec  8 10:25 /scratch/hazwong/824970/28SR_5/usrc/28SR_5_fmo_input.F06.012
-rw-r--r-- 1 hazwong frank      634 Dec  8 10:25 /scratch/hazwong/824970/28SR_5/usrc/28SR_5_fmo_input.F06.013
-rw-r--r-- 1 hazwong frank      634 Dec  8 10:25 /scratch/hazwong/824970/28SR_5/usrc/28SR_5_fmo_input.F06.014
-rw-r--r-- 1 hazwong frank      634 Dec  8 10:25 /scratch/hazwong/824970/28SR_5/usrc/28SR_5_fmo_input.F06.015
-rw-r--r-- 1 hazwong frank    21906 Dec  8 10:25 /scratch/hazwong/824970/28SR_5/usrc/28SR_5_fmo_input.F07
-rw-r--r-- 1 hazwong frank        0 Dec  7 08:28 /scratch/hazwong/824970/28SR_5/usrc/28SR_5_fmo_input.F07.001
-rw-r--r-- 1 hazwong frank        0 Dec  7 08:28 /scratch/hazwong/824970/28SR_5/usrc/28SR_5_fmo_input.F07.002
-rw-r--r-- 1 hazwong frank        0 Dec  7 08:28 /scratch/hazwong/824970/28SR_5/usrc/28SR_5_fmo_input.F07.003
-rw-r--r-- 1 hazwong frank        0 Dec  7 08:28 /scratch/hazwong/824970/28SR_5/usrc/28SR_5_fmo_input.F07.004
-rw-r--r-- 1 hazwong frank        0 Dec  7 08:28 /scratch/hazwong/824970/28SR_5/usrc/28SR_5_fmo_input.F07.005
-rw-r--r-- 1 hazwong frank        0 Dec  7 08:28 /scratch/hazwong/824970/28SR_5/usrc/28SR_5_fmo_input.F07.006
-rw-r--r-- 1 hazwong frank        0 Dec  7 08:28 /scratch/hazwong/824970/28SR_5/usrc/28SR_5_fmo_input.F07.007
-rw-r--r-- 1 hazwong frank        0 Dec  7 08:28 /scratch/hazwong/824970/28SR_5/usrc/28SR_5_fmo_input.F07.008
-rw-r--r-- 1 hazwong frank        0 Dec  7 08:28 /scratch/hazwong/824970/28SR_5/usrc/28SR_5_fmo_input.F07.009
-rw-r--r-- 1 hazwong frank        0 Dec  7 08:28 /scratch/hazwong/824970/28SR_5/usrc/28SR_5_fmo_input.F07.010
-rw-r--r-- 1 hazwong frank        0 Dec  7 08:28 /scratch/hazwong/824970/28SR_5/usrc/28SR_5_fmo_input.F07.011
-rw-r--r-- 1 hazwong frank        0 Dec  7 08:28 /scratch/hazwong/824970/28SR_5/usrc/28SR_5_fmo_input.F07.012
-rw-r--r-- 1 hazwong frank        0 Dec  7 08:28 /scratch/hazwong/824970/28SR_5/usrc/28SR_5_fmo_input.F07.013
-rw-r--r-- 1 hazwong frank        0 Dec  7 08:28 /scratch/hazwong/824970/28SR_5/usrc/28SR_5_fmo_input.F07.014
-rw-r--r-- 1 hazwong frank        0 Dec  7 08:28 /scratch/hazwong/824970/28SR_5/usrc/28SR_5_fmo_input.F07.015
-rw-r--r-- 1 hazwong frank    65440 Dec  8 10:25 /scratch/hazwong/824970/28SR_5/usrc/28SR_5_fmo_input.F10.000
-rw-r--r-- 1 hazwong frank        0 Dec  7 08:28 /scratch/hazwong/824970/28SR_5/usrc/28SR_5_fmo_input.F26.000
-rw-r--r-- 1 hazwong frank        0 Dec  7 08:28 /scratch/hazwong/824970/28SR_5/usrc/28SR_5_fmo_input.F26.001
-rw-r--r-- 1 hazwong frank        0 Dec  7 08:28 /scratch/hazwong/824970/28SR_5/usrc/28SR_5_fmo_input.F26.002
-rw-r--r-- 1 hazwong frank        0 Dec  7 08:28 /scratch/hazwong/824970/28SR_5/usrc/28SR_5_fmo_input.F26.003
-rw-r--r-- 1 hazwong frank        0 Dec  7 08:28 /scratch/hazwong/824970/28SR_5/usrc/28SR_5_fmo_input.F26.004
-rw-r--r-- 1 hazwong frank        0 Dec  7 08:28 /scratch/hazwong/824970/28SR_5/usrc/28SR_5_fmo_input.F26.005
-rw-r--r-- 1 hazwong frank        0 Dec  7 08:28 /scratch/hazwong/824970/28SR_5/usrc/28SR_5_fmo_input.F26.006
-rw-r--r-- 1 hazwong frank        0 Dec  7 08:28 /scratch/hazwong/824970/28SR_5/usrc/28SR_5_fmo_input.F26.007
-rw-r--r-- 1 hazwong frank        0 Dec  7 08:28 /scratch/hazwong/824970/28SR_5/usrc/28SR_5_fmo_input.F26.008
-rw-r--r-- 1 hazwong frank        0 Dec  7 08:28 /scratch/hazwong/824970/28SR_5/usrc/28SR_5_fmo_input.F26.009
-rw-r--r-- 1 hazwong frank        0 Dec  7 08:28 /scratch/hazwong/824970/28SR_5/usrc/28SR_5_fmo_input.F26.010
-rw-r--r-- 1 hazwong frank        0 Dec  7 08:28 /scratch/hazwong/824970/28SR_5/usrc/28SR_5_fmo_input.F26.011
-rw-r--r-- 1 hazwong frank        0 Dec  7 08:28 /scratch/hazwong/824970/28SR_5/usrc/28SR_5_fmo_input.F26.012
-rw-r--r-- 1 hazwong frank        0 Dec  7 08:28 /scratch/hazwong/824970/28SR_5/usrc/28SR_5_fmo_input.F26.013
-rw-r--r-- 1 hazwong frank        0 Dec  7 08:28 /scratch/hazwong/824970/28SR_5/usrc/28SR_5_fmo_input.F26.014
-rw-r--r-- 1 hazwong frank        0 Dec  7 08:28 /scratch/hazwong/824970/28SR_5/usrc/28SR_5_fmo_input.F26.015
-rw-r--r-- 1 hazwong frank        0 Dec  7 08:28 /scratch/hazwong/824970/28SR_5/usrc/28SR_5_fmo_input.F27.000
-rw-r--r-- 1 hazwong frank        0 Dec  7 08:28 /scratch/hazwong/824970/28SR_5/usrc/28SR_5_fmo_input.F27.001
-rw-r--r-- 1 hazwong frank        0 Dec  7 08:28 /scratch/hazwong/824970/28SR_5/usrc/28SR_5_fmo_input.F27.002
-rw-r--r-- 1 hazwong frank        0 Dec  7 08:28 /scratch/hazwong/824970/28SR_5/usrc/28SR_5_fmo_input.F27.003
-rw-r--r-- 1 hazwong frank        0 Dec  7 08:28 /scratch/hazwong/824970/28SR_5/usrc/28SR_5_fmo_input.F27.004
-rw-r--r-- 1 hazwong frank        0 Dec  7 08:28 /scratch/hazwong/824970/28SR_5/usrc/28SR_5_fmo_input.F27.005
-rw-r--r-- 1 hazwong frank        0 Dec  7 08:28 /scratch/hazwong/824970/28SR_5/usrc/28SR_5_fmo_input.F27.006
-rw-r--r-- 1 hazwong frank        0 Dec  7 08:28 /scratch/hazwong/824970/28SR_5/usrc/28SR_5_fmo_input.F27.007
-rw-r--r-- 1 hazwong frank        0 Dec  7 08:28 /scratch/hazwong/824970/28SR_5/usrc/28SR_5_fmo_input.F27.008
-rw-r--r-- 1 hazwong frank        0 Dec  7 08:28 /scratch/hazwong/824970/28SR_5/usrc/28SR_5_fmo_input.F27.009
-rw-r--r-- 1 hazwong frank        0 Dec  7 08:28 /scratch/hazwong/824970/28SR_5/usrc/28SR_5_fmo_input.F27.010
-rw-r--r-- 1 hazwong frank        0 Dec  7 08:28 /scratch/hazwong/824970/28SR_5/usrc/28SR_5_fmo_input.F27.011
-rw-r--r-- 1 hazwong frank        0 Dec  7 08:28 /scratch/hazwong/824970/28SR_5/usrc/28SR_5_fmo_input.F27.012
-rw-r--r-- 1 hazwong frank        0 Dec  7 08:28 /scratch/hazwong/824970/28SR_5/usrc/28SR_5_fmo_input.F27.013
-rw-r--r-- 1 hazwong frank        0 Dec  7 08:28 /scratch/hazwong/824970/28SR_5/usrc/28SR_5_fmo_input.F27.014
-rw-r--r-- 1 hazwong frank        0 Dec  7 08:28 /scratch/hazwong/824970/28SR_5/usrc/28SR_5_fmo_input.F27.015
-rw-r--r-- 1 hazwong frank 33538048 Dec  7 16:06 /scratch/hazwong/824970/28SR_5/usrc/28SR_5_fmo_input.F40.000
-rw-r--r-- 1 hazwong frank 33538048 Dec  7 16:06 /scratch/hazwong/824970/28SR_5/usrc/28SR_5_fmo_input.F40.001
-rw-r--r-- 1 hazwong frank 33538048 Dec  7 16:06 /scratch/hazwong/824970/28SR_5/usrc/28SR_5_fmo_input.F40.002
-rw-r--r-- 1 hazwong frank 33538048 Dec  7 16:06 /scratch/hazwong/824970/28SR_5/usrc/28SR_5_fmo_input.F40.003
-rw-r--r-- 1 hazwong frank 33538048 Dec  7 16:06 /scratch/hazwong/824970/28SR_5/usrc/28SR_5_fmo_input.F40.004
-rw-r--r-- 1 hazwong frank 33538048 Dec  7 16:06 /scratch/hazwong/824970/28SR_5/usrc/28SR_5_fmo_input.F40.005
-rw-r--r-- 1 hazwong frank 33538048 Dec  7 16:06 /scratch/hazwong/824970/28SR_5/usrc/28SR_5_fmo_input.F40.006
-rw-r--r-- 1 hazwong frank 33538048 Dec  7 16:06 /scratch/hazwong/824970/28SR_5/usrc/28SR_5_fmo_input.F40.007
-rw-r--r-- 1 hazwong frank 33538048 Dec  7 16:06 /scratch/hazwong/824970/28SR_5/usrc/28SR_5_fmo_input.F40.008
-rw-r--r-- 1 hazwong frank 33538048 Dec  7 16:06 /scratch/hazwong/824970/28SR_5/usrc/28SR_5_fmo_input.F40.009
-rw-r--r-- 1 hazwong frank 33538048 Dec  7 16:06 /scratch/hazwong/824970/28SR_5/usrc/28SR_5_fmo_input.F40.010
-rw-r--r-- 1 hazwong frank 33538048 Dec  7 16:06 /scratch/hazwong/824970/28SR_5/usrc/28SR_5_fmo_input.F40.011
-rw-r--r-- 1 hazwong frank 33538048 Dec  7 16:06 /scratch/hazwong/824970/28SR_5/usrc/28SR_5_fmo_input.F40.012
-rw-r--r-- 1 hazwong frank 33538048 Dec  7 16:06 /scratch/hazwong/824970/28SR_5/usrc/28SR_5_fmo_input.F40.013
-rw-r--r-- 1 hazwong frank 33538048 Dec  7 16:06 /scratch/hazwong/824970/28SR_5/usrc/28SR_5_fmo_input.F40.014
-rw-r--r-- 1 hazwong frank 33538048 Dec  7 16:06 /scratch/hazwong/824970/28SR_5/usrc/28SR_5_fmo_input.F40.015
ls: No match.
ls: No match.
ls: No match.
Sun Dec  8 10:25:53 EST 2019
0.190u 0.136s 25:57:01.91 0.0%	0+0k 1296+176io 20pf+0w
