‘28SR_1_fmo_input.inp’ -> ‘/scratch/hazwong/824950/./28SR_1_fmo_input.inp’
‘rungms’ -> ‘/scratch/hazwong/824950/./rungms’
‘gms-files.csh’ -> ‘/scratch/hazwong/824950/./gms-files.csh’
----- GAMESS execution script 'rungms' -----
This job is running on host gollum080.lsa.umich.edu
under operating system Linux at Sat Dec 7 08:17:52 EST 2019
Available scratch disk space (Kbyte units) at beginning of the job is
Filesystem     1K-blocks    Used Available Use% Mounted on
/dev/sda4      426933580 2523424 424410156   1% /scratch
GAMESS temporary binary files will be written to /scratch/hazwong/824950/28SR_1/usrc
GAMESS supplementary output files will be written to /scratch/hazwong/824950/28SR_1/src
Copying input file 28SR_1_fmo_input.inp to your run's scratch directory...
cp 28SR_1_fmo_input.inp /scratch/hazwong/824950/28SR_1/usrc/28SR_1_fmo_input.F05
unset echo
This is a GDDI run, keeping various output files on local disks
setenv OUTPUT /scratch/hazwong/824950/28SR_1/usrc/28SR_1_fmo_input.F06
setenv PUNCH /scratch/hazwong/824950/28SR_1/usrc/28SR_1_fmo_input.F07
unset echo
 
Assuming a single but multicore node.
 
/export/apps/CentOS7/gamess/src/build//ddikick.x /export/apps/CentOS7/gamess/src/build//gamess.R3.x 28SR_1_fmo_input -ddi 1 16 gollum080.lsa.umich.edu:cpus=16 -scr /scratch/hazwong/824950/28SR_1/usrc

 Distributed Data Interface kickoff program.
 Initiating 16 compute processes on 1 nodes to run the following command:
 /export/apps/CentOS7/gamess/src/build//gamess.R3.x 28SR_1_fmo_input 

          ******************************************************
          *         GAMESS VERSION = 30 SEP 2018 (R3)         *
          *             FROM IOWA STATE UNIVERSITY             *
          * M.W.SCHMIDT, K.K.BALDRIDGE, J.A.BOATZ, S.T.ELBERT, *
          *   M.S.GORDON, J.H.JENSEN, S.KOSEKI, N.MATSUNAGA,   *
          *          K.A.NGUYEN, S.J.SU, T.L.WINDUS,           *
          *       TOGETHER WITH M.DUPUIS, J.A.MONTGOMERY       *
          *         J.COMPUT.CHEM.  14, 1347-1363(1993)        *
          **************** 64 BIT LINUX VERSION ****************

  SINCE 1993, STUDENTS AND POSTDOCS WORKING AT IOWA STATE UNIVERSITY
  AND ALSO IN THEIR VARIOUS JOBS AFTER LEAVING ISU HAVE MADE IMPORTANT
  CONTRIBUTIONS TO THE CODE:
     IVANA ADAMOVIC, CHRISTINE AIKENS, YURI ALEXEEV, POOJA ARORA,
     ANDREY ASADCHEV, ROB BELL, PRADIPTA BANDYOPADHYAY, JONATHAN BENTZ,
     BRETT BODE, KURT BRORSEN, CALEB CARLIN, GALINA CHABAN, WEI CHEN,
     CHEOL HO CHOI, PAUL DAY, ALBERT DEFUSCO, NUWAN DESILVA, TIM DUDLEY,
     DMITRI FEDOROV, ALEX FINDLATER, GRAHAM FLETCHER, MARK FREITAG,
     KURT GLAESEMANN, ANASTASIA GUNINA,
     DAN KEMP, GRANT MERRILL, NORIYUKI MINEZAWA, JONATHAN MULLIN,
     TAKESHI NAGATA, SEAN NEDD, HEATHER NETZLOFF, BOSILJKA NJEGIC, RYAN OLSON,
     MIKE PAK, BUU PHAM,
     SPENCER PRUITT, LUKE ROSKOP, JIM SHOEMAKER, LYUDMILA SLIPCHENKO,
     TONY SMITH, SAROM SOK LEANG, JIE SONG, TETSUYA TAKETSUGU, SIMON WEBB,
     PENG XU, SOOHAENG YOO, FEDERICO ZAHARIEV

  ADDITIONAL CODE HAS BEEN PROVIDED BY COLLABORATORS IN OTHER GROUPS:
     IOWA STATE UNIVERSITY:
          JOE IVANIC, AARON WEST, LAIMUTIS BYTAUTAS, KLAUS RUEDENBERG
     UNIVERSITY OF TOKYO: KIMIHIKO HIRAO, TAKAHITO NAKAJIMA,
          TAKAO TSUNEDA, MUNEAKI KAMIYA, SUSUMU YANAGISAWA,
          KIYOSHI YAGI, MAHITO CHIBA, SEIKEN TOKURA, NAOAKI KAWAKAMI
     UNIVERSITY OF AARHUS: FRANK JENSEN
     UNIVERSITY OF IOWA: VISVALDAS KAIRYS, HUI LI
     NATIONAL INST. OF STANDARDS AND TECHNOLOGY: WALT STEVENS, DAVID GARMER
     UNIVERSITY OF PISA: BENEDETTA MENNUCCI, JACOPO TOMASI
     UNIVERSITY OF MEMPHIS: HENRY KURTZ, PRAKASHAN KORAMBATH
     UNIVERSITY OF ALBERTA: TOBY ZENG, MARIUSZ KLOBUKOWSKI
     UNIVERSITY OF NEW ENGLAND: MARK SPACKMAN
     MIE UNIVERSITY: HIROAKI UMEDA
     NAT. INST. OF ADVANCED INDUSTRIAL SCIENCE AND TECHNOLOGY: KAZUO KITAURA
     MICHIGAN STATE UNIVERSITY:
          KAROL KOWALSKI, MARTA WLOCH, JEFFREY GOUR, JESSE LUTZ,
          WEI LI, JUN SHEN, J. EMILIANO DEUSTUA, PIOTR PIECUCH
     UNIVERSITY OF MINNESOTA:
          YINAN SHU
     UNIVERSITY OF SILESIA: MONIKA MUSIAL, STANISLAW KUCHARSKI
     FACULTES UNIVERSITAIRES NOTRE-DAME DE LA PAIX:
          OLIVIER QUINET, BENOIT CHAMPAGNE
     UNIVERSITY OF CALIFORNIA - SANTA BARBARA: BERNARD KIRTMAN
     INSTITUTE FOR MOLECULAR SCIENCE:
          KAZUYA ISHIMURA, MICHIO KATOUDA, AND SHIGERU NAGASE
     UNIVERSITY OF NOTRE DAME: ANNA POMOGAEVA, DAN CHIPMAN
     KYUSHU UNIVERSITY:
          HARUYUKI NAKANO,
          FENG LONG GU, JACEK KORCHOWIEC, MARCIN MAKOWSKI, AND YURIKO AOKI,
          HIROTOSHI MORI AND EISAKU MIYOSHI
     PENNSYLVANIA STATE UNIVERSITY:
          TZVETELIN IORDANOV, CHET SWALINA, JONATHAN SKONE,
          SHARON HAMMES-SCHIFFER
     WASEDA UNIVERSITY:
          MASATO KOBAYASHI, TOMOKO AKAMA, TSUGUKI TOUMA,
          TAKESHI YOSHIKAWA, YASUHIRO IKABATA, JUNJI SEINO,
          YUYA NAKAJIMA, HIROMI NAKAI
     NANJING UNIVERSITY: SHUHUA LI
     UNIVERSITY OF NEBRASKA:
          PEIFENG SU, DEJUN SI, NANDUN THELLAMUREGE, YALI WANG, HUI LI
     UNIVERSITY OF ZURICH: ROBERTO PEVERATI, KIM BALDRIDGE
     N. COPERNICUS UNIVERSITY AND JACKSON STATE UNIVERSITY:
          MARIA BARYSZ
     UNIVERSITY OF COPENHAGEN: Jimmy Kromann, CASPER STEINMANN
     TOKYO INSTITUTE OF TECHNOLOGY: HIROYA NAKATA
     NAGOYA UNIVERSITY: YOSHIO NISHIMOTO, STEPHAN IRLE
     MOSCOW STATE UNIVERSITY: VLADIMIR MIRONOV


 PARALLEL VERSION RUNNING ON       16 PROCESSORS IN        1 NODES.

 EXECUTION OF GAMESS BEGUN Sat Dec  7 08:17:52 2019

            ECHO OF THE FIRST FEW INPUT CARDS -
 INPUT CARD>!*** FMO 5.3 (Gamess) INPUT generated by Facio 22.1.1.32 ***                    
 INPUT CARD> $CONTRL RUNTYP=ENERGY NPRINT=-5 ISPHER=1 MAXIT=200 $END                        
 INPUT CARD> $SYSTEM MWORDS=63 MEMDDI=63 $END                                               
 INPUT CARD> $GDDI NGROUP=1 $END                                                            
 INPUT CARD> $SCF DIRSCF=.TRUE. NPUNCH=0 $END                                               
 INPUT CARD>!*** NumCPU : 2  MemPerNode : 512MB                                             
 INPUT CARD> $PCM SOLVNT=WATER IEF=-10 ICOMP=2 ICAV=1 IDISP=1 IFMO=-1 $END                  
 INPUT CARD> $PCMCAV RADII=SUAHF $END                                                       
 INPUT CARD> $TESCAV NTSALL=60 $END                                                         
 INPUT CARD> $FMOPRP                                                                        
 INPUT CARD>    NAODIR=200                                                                  
 INPUT CARD>    NGRFMO(1)=1, 1, 0, 0, 0,   0, 0, 0, 0, 0                                    
 INPUT CARD>    IPIEDA=1                                                                    
 INPUT CARD>    NPRINT=9                                                                    
 INPUT CARD> $END                                                                           
 INPUT CARD> $FMO                                                                           
 INPUT CARD>      SCFTYP(1)=RHF                                                             
 INPUT CARD>      MODGRD=10                                                                 
 INPUT CARD>      MODMUL=0                                                                  
 INPUT CARD>      MAXCAO=5                                                                  
 INPUT CARD>      MAXBND=18                                                                 
 INPUT CARD>      NLAYER=1                                                                  
 INPUT CARD>      MPLEVL(1)=2                                                               
 INPUT CARD>      NFRAG=16                                                                  
 INPUT CARD>      ICHARG(1)=-1, -1, -1, -1, -1, -1, -1, 0, -1, -1, -1, -1, -1, -1,          
 INPUT CARD>-1, 0                                                                           
 INPUT CARD>      FRGNAM(1)=F1, F2, F3, F4, F5, F6, F7, F8, F9, F10, F11, F12, F13,         
 INPUT CARD>F14, F15, F16                                                                   
 INPUT CARD>      indat(1)=0                                                                
 INPUT CARD>               1   -36   0                                                      
 INPUT CARD>               37   -66   0                                                     
 INPUT CARD>               67   -97   0                                                     
 INPUT CARD>               98   -130   0                                                    
 INPUT CARD>               131   -164   0                                                   
 INPUT CARD>               165   -198   0                                                   
 INPUT CARD>               199   -228   0                                                   
 INPUT CARD>               229   -258   0                                                   
 INPUT CARD>               259   -292   0                                                   
 INPUT CARD>               293   -325   0                                                   
 INPUT CARD>               326   -358   0                                                   
 INPUT CARD>               359   -392   0                                                   
 INPUT CARD>               393   -423   0                                                   
 INPUT CARD>               424   -456   0                                                   
 INPUT CARD>               457   -490   0                                                   
 INPUT CARD>               491   -518   0                                                   
 INPUT CARD> $END                                                                           
 INPUT CARD>                                                                                
 INPUT CARD> $FMOBND                                                                        
 INPUT CARD>   -37   36       6-31G*    MINI                                                
 INPUT CARD>   -67   66       6-31G*    MINI                                                


 -------------------------------------------------------------
 GROUP DDI, PROGRAMMED BY: RYAN M. OLSON AND DMITRI G. FEDOROV
        FEDOROV ET AL., J. COMPUT. CHEM., 25 (2004) 872.
 -------------------------------------------------------------

 -------------------------------------------------------
 GDDI: INITIALIZATION COMPLETED FOR GROUP     1 OF     1
 WITH    16 PROCESSES BALTYP=DLB   global rank=        0
 -------------------------------------------------------

   63000000 WORDS OF MEMORY AVAILABLE


     RUN TITLE
     ---------
  FMO calculation                                                                

 THE POINT GROUP OF THE MOLECULE IS C1      
 THE ORDER OF THE PRINCIPAL AXIS IS     0

 ATOM   ATOMIC CHARGE
 H.1-1       1.0
 O.1-1       8.0
 C.1-1       6.0
 N.1-1       7.0
 P.1-1      15.0

     ATOMIC BASIS SET LIBRARY
     ----------------
 THE CONTRACTED PRIMITIVE FUNCTIONS HAVE BEEN UNNORMALIZED
 THE CONTRACTED BASIS FUNCTIONS ARE NOW NORMALIZED TO UNITY

  SHELL TYPE  PRIMITIVE        EXPONENT          CONTRACTION COEFFICIENT(S)

 H.1-1     

      1   S       1            18.7311370    0.033494604338
      1   S       2             2.8253944    0.234726953484
      1   S       3             0.6401217    0.813757326146

      2   S       4             0.1612778    1.000000000000

 O.1-1     

      3   S       5          5484.6716600    0.001831074430
      3   S       6           825.2349460    0.013950172200
      3   S       7           188.0469580    0.068445078098
      3   S       8            52.9645000    0.232714335992
      3   S       9            16.8975704    0.470192897984
      3   S      10             5.7996353    0.358520852987

      4   L      11            15.5396162   -0.110777549525    0.070874268231
      4   L      12             3.5999336   -0.148026262701    0.339752839147
      4   L      13             1.0137618    1.130767015354    0.727158577316

      5   L      14             0.2700058    1.000000000000    1.000000000000

      6   D      15             0.8000000    1.000000000000

 C.1-1     

      7   S      16          3047.5248800    0.001834737132
      7   S      17           457.3695180    0.014037322813
      7   S      18           103.9486850    0.068842622264
      7   S      19            29.2101553    0.232184443216
      7   S      20             9.2866630    0.467941348435
      7   S      21             3.1639270    0.362311985337

      8   L      22             7.8682723   -0.119332419775    0.068999066591
      8   L      23             1.8812885   -0.160854151696    0.316423960957
      8   L      24             0.5442493    1.143456437840    0.744308290898

      9   L      25             0.1687145    1.000000000000    1.000000000000

     10   D      26             0.8000000    1.000000000000

 N.1-1     

     11   S      27          4173.5114600    0.001834772160
     11   S      28           627.4579110    0.013994627002
     11   S      29           142.9020930    0.068586551812
     11   S      30            40.2343293    0.232240873040
     11   S      31            12.8202129    0.469069948082
     11   S      32             4.3904370    0.360455199063

     12   L      33            11.6263619   -0.114961181702    0.067579743878
     12   L      34             2.7162798   -0.169117478561    0.323907295893
     12   L      35             0.7722184    1.145851947027    0.740895139755

     13   L      36             0.2120315    1.000000000000    1.000000000000

     14   D      37             0.8000000    1.000000000000

 P.1-1     

     15   S      38         19413.3000000    0.001851598923
     15   S      39          2909.4200000    0.014206191735
     15   S      40           661.3640000    0.069999459277
     15   S      41           185.7590000    0.240078860331
     15   S      42            59.1943000    0.484761717984
     15   S      43            20.0310000    0.335199804993

     16   L      44           339.4780000   -0.002782170105    0.004564616191
     16   L      45            81.0101000   -0.036049901354    0.033693571881
     16   L      46            25.8780000   -0.116631004382    0.139754883368
     16   L      47             9.4522100    0.096832803638    0.339361716786
     16   L      48             3.6656600    0.614418023082    0.450920623685
     16   L      49             1.4674600    0.403798015170    0.238585800889

     17   L      50             2.1562300   -0.252924113863   -0.017765312733
     17   L      51             0.7489970    0.032851844678    0.274058196433
     17   L      52             0.2831450    1.081254761783    0.785421562957

     18   L      53             0.0998317    1.000000000000    1.000000000000

     19   D      54             0.5500000    1.000000000000

 TOTAL NUMBER OF BASIS SET SHELLS             =   19
 NUMBER OF CARTESIAN GAUSSIAN BASIS FUNCTIONS =   66

     $CONTRL OPTIONS
     ---------------
 SCFTYP=RHF          RUNTYP=ENERGY       EXETYP=RUN     
 MPLEVL=       0     CITYP =NONE         CCTYP =NONE         VBTYP =NONE    
 DFTTYP=NONE         TDDFT =NONE    
 MULT  =       1     ICHARG=       0     NZVAR =       0     COORD =UNIQUE  
 PP    =NONE         RELWFN=NONE         LOCAL =NONE         NUMGRD=       F
 ISPHER=       1     NOSYM =       0     MAXIT =     200     UNITS =ANGS    
 PLTORB=       F     MOLPLT=       F     AIMPAC=       F     FRIEND=        
 NPRINT=      -5     IREST =       0     GEOM  =INPUT   
 NORMF =       0     NORMP =       0     ITOL  =      24     ICUT  =      12
 INTTYP=BEST         GRDTYP=BEST         QMTTOL= 1.0E-06

     $SYSTEM OPTIONS
     ---------------
  REPLICATED MEMORY=    63000000 WORDS (ON EVERY NODE).
 DISTRIBUTED MEMDDI=          63 MILLION WORDS IN AGGREGATE,
 MEMDDI DISTRIBUTED OVER  16 PROCESSORS IS     3937500 WORDS/PROCESSOR.
 TOTAL MEMORY REQUESTED ON EACH PROCESSOR=    66937500 WORDS.
 TIMLIM=      525600.00 MINUTES, OR     365.0 DAYS.
 PARALL= T  BALTYP=  DLB     KDIAG=    0  COREFL= F
 MXSEQ2=     300 MXSEQ3=     150  mem10=         0

 ** LOOKING UP INTERNALLY STORED DATA FOR SOLVENT=WATER    **
 OPTICAL AND PHYSICAL CONSTANTS:
 EPS= 78.390; EPSINF=  1.776; RSOLV=  1.385 A; VMOL=  18.070 ML/MOL;
 TCE= .25700E-03 1/K; STEN= 71.810 DYN/CM;  DSTEN=  0.6500; CMF=  1.2770


     -----------------------------------
     INPUT FOR PCM SOLVATION CALCULATION 
     -----------------------------------
     IEF   =     -10
     ICOMP =       2     IFIELD=       0     ICAV  =       1
     IDISP =       1     IREP  =       0     IDP   =       0

     SOLVNT=WATER        EPS   = 78.3900     EPSINF=  1.7760
     VMOL  = 18.0700     TCE   =  0.00025700 STEN  = 71.8100
     DSTEN =  0.6500     CMF   =  1.2770     RSOLV =  1.3850

     NESFP =       0
     OMEGA = 40.0000     RET   =100.0000     FRO   =  0.7000

     TABS  =298.0000     IPRINT=       0

     --------------------------------
     INPUT FOR ITERATIVE C-PCM METHOD 
     --------------------------------
     IPCMIT  =         1     MXDIIS  =        50
     MXITR1  =       200     MXITR2  =       200
     THRES   = 0.100E-09     IMUL    =         3
     RCUT(1) =   20.0000     RCUT(2) =   50.0000

     IDIRCT  =         1
     IMGABI  =         0     RABI    =    4.0000
     IMGASC  =         0     RASC    =   20.0000
     THRSLS  = 0.500E-03     DENSLS  =    0.0100
     IEFPOL  =         1     REFPOL  =    0.0000

     INPUT FOR ISOTROPIC DIELECTRICS
     -------------------------------
     EPS=    78.39

          ----------------
          PROPERTIES INPUT
          ----------------

     MOMENTS            FIELD           POTENTIAL          DENSITY
 IEMOM =       1   IEFLD =       0   IEPOT =       0   IEDEN =       0
 WHERE =COMASS     WHERE =NUCLEI     WHERE =NUCLEI     WHERE =NUCLEI  
 OUTPUT=BOTH       OUTPUT=BOTH       OUTPUT=NONE       OUTPUT=BOTH    
 IEMINT=       0   IEFINT=       0                     IEDINT=       0
                                                       MORB  =       0
          EXTRAPOLATION IN EFFECT
          SOSCF IN EFFECT
 ORBITAL PRINTING OPTION: NPREO=     1 32767     2     1

     -------------------------------
     INTEGRAL TRANSFORMATION OPTIONS
     -------------------------------
     NWORD  =            0
     CUTOFF = 1.0E-10     MPTRAN =       0
     DIRTRF =       T     AOINTS =DUP     

          ----------------------
          INTEGRAL INPUT OPTIONS
          ----------------------
 NOPK  =       1 NORDER=       0 SCHWRZ=       T

 ..... DONE SETTING UP THE RUN .....
 CPU     0: STEP CPU TIME=     0.05 TOTAL CPU TIME=          0.0 (      0.0 MIN)
 TOTAL WALL CLOCK TIME=          0.1 SECONDS, CPU UTILIZATION IS    50.00%
 CPU     0: STEP CPU TIME=     0.00 TOTAL CPU TIME=          0.0 (      0.0 MIN)
 TOTAL WALL CLOCK TIME=          0.1 SECONDS, CPU UTILIZATION IS    45.45%

                    ----------------------
                    AO INTEGRAL TECHNOLOGY
                    ----------------------
     S,P,L SHELL ROTATED AXIS INTEGRALS, REPROGRAMMED BY
        KAZUYA ISHIMURA (IMS) AND JOSE SIERRA (SYNSTAR).
     S,P,D,L SHELL ROTATED AXIS INTEGRALS PROGRAMMED BY
        KAZUYA ISHIMURA (INSTITUTE FOR MOLECULAR SCIENCE).
     S,P,D,F,G SHELL TO TOTAL QUARTET ANGULAR MOMENTUM SUM 5,
        ERIC PROGRAM BY GRAHAM FLETCHER (ELORET AND NASA ADVANCED
        SUPERCOMPUTING DIVISION, AMES RESEARCH CENTER).
     S,P,D,F,G,L SHELL GENERAL RYS QUADRATURE PROGRAMMED BY
        MICHEL DUPUIS (PACIFIC NORTHWEST NATIONAL LABORATORY).
 Setting modorb=1 flag...
 Setting modorb=1 flag...

          -----------------------
          MP2 CONTROL INFORMATION
          -----------------------
          NACORE =        8  NBCORE =        8
          LMOMP2 =        F  AOINTS = DUP     
          METHOD =        2  NWORD  =               0
          MP2PRP =        F  OSPT   = NONE    
          CUTOFF = 1.00E-12  CPHFBS = BASISAO 
          CODE   = IMS     

          NUMBER OF CORE -A-  ORBITALS =     8
          NUMBER OF CORE -B-  ORBITALS =     8
          NUMBER OF OCC. -A-  ORBITALS =    18
          NUMBER OF OCC. -B-  ORBITALS =    18
          NUMBER OF MOLECULAR ORBITALS =    66
          NUMBER OF   BASIS  FUNCTIONS =    66

 CPU     0: STEP CPU TIME=     0.03 TOTAL CPU TIME=          0.1 (      0.0 MIN)
 TOTAL WALL CLOCK TIME=          0.1 SECONDS, CPU UTILIZATION IS    57.14%
 CPU     0: STEP CPU TIME=     0.00 TOTAL CPU TIME=          0.1 (      0.0 MIN)
 TOTAL WALL CLOCK TIME=          0.1 SECONDS, CPU UTILIZATION IS    57.14%

     INPUT FOR CAVITY DEFINITION 
     ---------------------------
   ATOM               COORDINATES                RADIUS       EPS
      1      4.2650    -52.4760     39.7980      0.0100     78.3900
      2      4.9550    -52.7450     39.1620      1.5900     78.3900
      3      6.0270    -53.3100     39.9300      1.7700     78.3900
      4      5.6270    -54.1450     40.5510      0.0100     78.3900
      5      6.4340    -52.5440     40.6300      0.0100     78.3900
      6      7.1640    -53.8550     39.0600      1.7700     78.3900
      7      7.9920    -54.2390     39.6940      0.0100     78.3900
      8      6.6730    -54.9720     38.2670      1.5900     78.3900
      9      7.2770    -54.9390     36.9870      1.7700     78.3900
     10      7.7660    -55.9290     36.8320      0.0100     78.3900
     11      6.2760    -54.7280     35.9320      1.6800     78.3900
     12      6.4530    -54.9670     34.5960      1.7700     78.3900
     13      8.4590    -56.0060     31.9780      1.6800     78.3900
     14      9.3230    -56.2140     32.4330      0.0100     78.3900
     15      8.3920    -56.1280     30.9850      0.0100     78.3900
     16      7.5810    -55.4110     34.0170      1.6800     78.3900
     17      7.4480    -55.5740     32.7060      1.7700     78.3900
     18      6.2840    -55.3150     32.0310      1.6800     78.3900
     19      6.2570    -55.4990     31.0410      0.0100     78.3900
     20      5.0990    -54.8680     32.6030      1.7700     78.3900
     21      4.0850    -54.6790     31.9230      1.5900     78.3900
     22      5.2390    -54.6780     34.0030      1.7700     78.3900
     23      4.3180    -54.2430     34.9460      1.6800     78.3900
     24      4.9770    -54.2890     36.0820      1.7700     78.3900
     25      4.5710    -54.0210     37.0620      0.0100     78.3900
     26      8.3330    -53.8550     37.0130      1.7700     78.3900
     27      8.4700    -53.3710     36.0240      0.0100     78.3900
     28      9.5610    -54.3950     37.4650      1.5900     78.3900
     29     10.1610    -53.6470     37.5700      0.0100     78.3900
     30      7.7530    -52.8790     38.0280      1.7700     78.3900
     31      6.8980    -52.3250     37.5800      0.0100     78.3900
     32      8.7220    -52.0120     38.6600      1.5900     78.3900
     33      9.0020    -50.5670     38.0930      2.1000     78.3900
     34      7.7040    -49.8960     37.8780      1.5900     78.3900
     35      9.9660    -49.9030     38.9980      1.5900     78.3900
     36      9.6770    -50.8030     36.6940      1.5900     78.3900
     37     10.9860    -51.3890     36.5290      1.7700     78.3900
     38     11.0750    -52.3530     37.0750      0.0100     78.3900
     39     11.7670    -50.7080     36.9350      0.0100     78.3900
     40     11.2940    -51.6550     35.0440      1.7700     78.3900
     41     12.3110    -52.0900     34.9270      0.0100     78.3900
     42     10.3390    -52.6130     34.4950      1.5900     78.3900
     43     10.0010    -52.2500     33.1630      1.7700     78.3900
     44     10.2530    -53.1330     32.5290      0.0100     78.3900
     45      8.5470    -51.9220     33.0180      1.6800     78.3900
     46      7.8050    -51.5460     34.1150      1.7700     78.3900
     47      8.3490    -51.5270     35.0550      0.0100     78.3900
     48      7.9630    -51.9900     31.7700      1.7700     78.3900
     49      8.5900    -52.2890     30.7580      1.5900     78.3900
     50      6.6170    -51.7110     31.7410      1.6800     78.3900
     51      6.1480    -51.7800     30.8490      0.0100     78.3900
     52      5.8110    -51.3840     32.8070      1.7700     78.3900
     53      4.6100    -51.2060     32.6390      1.5900     78.3900
     54      6.4930    -51.2840     34.0590      1.7700     78.3900
     55      5.9190    -51.0330     34.9490      0.0100     78.3900
     56     10.9050    -51.0930     32.7800      1.7700     78.3900
     57     10.3930    -50.3930     32.0990      0.0100     78.3900
     58     12.0950    -51.5710     32.1800      1.5900     78.3900
     59     12.6800    -50.8030     32.0780      0.0100     78.3900
     60     11.1830    -50.4320     34.1240      1.7700     78.3900
     61     10.2910    -49.8570     34.4610      0.0100     78.3900
     62     12.4030    -49.6620     34.1770      1.5900     78.3900
     63     12.4020    -48.1400     33.7770      2.1000     78.3900
     64     11.1410    -47.5400     34.2590      1.5900     78.3900
     65     13.6630    -47.5310     34.2580      1.5900     78.3900
     66     12.4200    -48.1430     32.1990      1.5900     78.3900
     67     11.7970    -47.0630     31.4510      1.7700     78.3900
     68     12.5730    -46.3590     31.0810      0.0100     78.3900
     69     11.0790    -46.4620     32.0630      0.0100     78.3900
     70     11.0200    -47.5960     30.2400      1.7700     78.3900
     71     11.7030    -48.0740     29.5030      0.0100     78.3900
     72     10.0860    -48.6080     30.6830      1.5900     78.3900
     73      8.8550    -48.4730     30.0210      1.7700     78.3900
     74      8.6730    -49.4660     29.5470      0.0100     78.3900
     75      7.7330    -48.1790     30.9600      1.6800     78.3900
     76      7.9700    -47.8430     32.2840      1.7700     78.3900
     77      9.0200    -47.7630     32.5890      0.0100     78.3900
     78      6.9560    -47.6200     33.1360      1.7700     78.3900
     79      7.1120    -47.3580     34.1820      0.0100     78.3900
     80      6.4230    -48.3040     30.5060      1.7700     78.3900
     81      6.2260    -48.6440     29.3290      1.5900     78.3900
     82      5.4000    -48.0540     31.3430      1.6800     78.3900
     83      5.6280    -47.7360     32.6260      1.7700     78.3900
     84      4.5810    -47.5640     33.4270      1.6800     78.3900
     85      3.6710    -47.7270     33.0130      0.0100     78.3900
     86      4.6690    -47.4060     34.4100      0.0100     78.3900
     87      9.0480    -47.4230     28.9330      1.7700     78.3900
     88      8.1300    -46.8280     28.7420      0.0100     78.3900
     89      9.4900    -48.0320     27.7320      1.5900     78.3900
     90      9.9310    -47.3430     27.2140      0.0100     78.3900
     91     10.1510    -46.5560     29.5240      1.7700     78.3900
     92      9.7350    -45.9030     30.3280      0.0100     78.3900
     93     10.9400    -45.8370     28.5370      1.5900     78.3900
     94     10.5100    -44.3580     28.1990      2.1000     78.3900
     95      9.0740    -44.2310     28.4970      1.5900     78.3900
     96     11.4260    -43.4270     28.8920      1.5900     78.3900
     97     10.6670    -44.2110     26.6520      1.5900     78.3900
     98     11.9170    -44.4020     25.9670      1.7700     78.3900
     99     12.4630    -45.2950     26.3540      0.0100     78.3900
    100     12.5680    -43.5090     26.0990      0.0100     78.3900
    101     11.6750    -44.6060     24.4680      1.7700     78.3900
    102     12.6310    -44.7900     23.9330      0.0100     78.3900
    103     10.8390    -45.7850     24.2790      1.5900     78.3900
    104      9.9380    -45.5590     23.2100      1.7700     78.3900
    105     10.1230    -46.3790     22.4750      0.0100     78.3900
    106      8.5430    -45.6180     23.6650      1.6800     78.3900
    107      6.3550    -45.8150     23.7270      1.7700     78.3900
    108      6.7730    -45.6980     25.0430      1.6800     78.3900
    109      8.0710    -45.5670     24.9570      1.7700     78.3900
    110      8.7460    -45.4380     25.8060      0.0100     78.3900
    111      5.0140    -46.0690     21.7920      1.6800     78.3900
    112      6.1470    -46.0140     21.0910      1.7700     78.3900
    113      6.0320    -46.0850     20.0050      0.0100     78.3900
    114      7.4060    -45.8740     21.5240      1.6800     78.3900
    115      7.4370    -45.7720     22.8670      1.7700     78.3900
    116      5.0820    -45.9800     23.1430      1.7700     78.3900
    117      3.9350    -46.0500     23.8360      1.6800     78.3900
    118      3.9010    -45.8830     24.8310      0.0100     78.3900
    119      3.0710    -46.0870     23.3370      0.0100     78.3900
    120     10.2900    -44.2360     22.5710      1.7700     78.3900
    121      9.4000    -43.6960     22.1950      0.0100     78.3900
    122     11.2130    -44.4390     21.5160      1.5900     78.3900
    123     11.6100    -43.5800     21.3050      0.0100     78.3900
    124     10.9240    -43.4810     23.7310      1.7700     78.3900
    125     10.1310    -43.1290     24.4360      0.0100     78.3900
    126     11.8370    -42.4340     23.3050      1.5900     78.3900
    127     11.3840    -40.9310     23.4530      2.1000     78.3900
    128     11.0910    -40.6710     24.8780      1.5900     78.3900
    129     12.3640    -40.0280     22.8030      1.5900     78.3900
    130     10.0200    -40.8430     22.6720      1.5900     78.3900
    131      9.9630    -40.9000     21.2310      1.7700     78.3900
    132     10.4630    -41.8200     20.8500      0.0100     78.3900
    133     10.4800    -40.0250     20.7800      0.0100     78.3900
    134      8.5130    -40.9120     20.7310      1.7700     78.3900
    135      8.4810    -40.9660     19.6230      0.0100     78.3900
    136      7.8590    -42.1140     21.2310      1.5900     78.3900
    137      6.5200    -41.8220     21.5790      1.7700     78.3900
    138      5.8820    -42.5380     21.0120      0.0100     78.3900
    139      6.2750    -42.0200     23.0100      1.6800     78.3900
    140      5.0560    -42.2120     23.5950      1.7700     78.3900
    141      1.6130    -42.5230     23.3560      1.6800     78.3900
    142      0.8420    -42.7430     23.9520      0.0100     78.3900
    143      1.4560    -42.4280     22.3760      0.0100     78.3900
    144      3.8680    -42.2290     22.9590      1.6800     78.3900
    145      2.8590    -42.4590     23.7970      1.7700     78.3900
    146      3.0150    -42.5640     25.1520      1.6800     78.3900
    147      2.2260    -42.8830     25.6840      0.0100     78.3900
    148      4.2300    -42.5860     25.8230      1.7700     78.3900
    149      4.2700    -42.7230     27.0450      1.5900     78.3900
    150      5.3180    -42.3690     24.9420      1.7700     78.3900
    151      6.6830    -42.2810     25.1970      1.6800     78.3900
    152      7.2070    -42.0600     24.0200      1.7700     78.3900
    153      8.2680    -41.9100     23.8230      0.0100     78.3900
    154      6.2290    -40.4080     21.1310      1.7700     78.3900
    155      5.5200    -39.8980     21.8100      0.0100     78.3900
    156      5.7030    -40.4270     19.8150      1.5900     78.3900
    157      5.7190    -39.5190     19.4780      0.0100     78.3900
    158      7.6040    -39.7530     21.1820      1.7700     78.3900
    159      7.8850    -39.5220     22.2360      0.0100     78.3900
    160      7.7400    -38.6200     20.2920      1.5900     78.3900
    161      7.6940    -37.1420     20.8350      2.1000     78.3900
    162      8.7170    -37.0020     21.8880      1.5900     78.3900
    163      7.7880    -36.2070     19.6920      1.5900     78.3900
    164      6.2790    -36.9950     21.5000      1.5900     78.3900
    165      5.0520    -36.9250     20.7400      1.7700     78.3900
    166      4.9920    -37.7470     19.9910      0.0100     78.3900
    167      4.9930    -35.9640     20.1810      0.0100     78.3900
    168      3.8130    -37.0260     21.6520      1.7700     78.3900
    169      2.8800    -36.9170     21.0580      0.0100     78.3900
    170      3.7750    -38.3530     22.2600      1.5900     78.3900
    171      3.3980    -38.2430     23.6240      1.7700     78.3900
    172      2.5540    -38.9580     23.7730      0.0100     78.3900
    173      4.4980    -38.6070     24.5370      1.6800     78.3900
    174      4.3680    -39.0000     25.8390      1.7700     78.3900
    175      2.3690    -39.6730     28.5750      1.6800     78.3900
    176      1.4580    -39.4570     28.2260      0.0100     78.3900
    177      2.4500    -40.1130     29.4620      0.0100     78.3900
    178      3.2140    -39.1130     26.5120      1.6800     78.3900
    179      3.3960    -39.5390     27.7570      1.7700     78.3900
    180      4.6230    -39.8370     28.2790      1.6800     78.3900
    181      4.6900    -40.1480     29.2370      0.0100     78.3900
    182      5.8300    -39.7330     27.6110      1.7700     78.3900
    183      6.8890    -40.0070     28.1820      1.5900     78.3900
    184      5.6510    -39.2520     26.2850      1.7700     78.3900
    185      6.5810    -39.0010     25.2830      1.6800     78.3900
    186      5.8440    -38.6380     24.2640      1.7700     78.3900
    187      6.2280    -38.3720     23.2830      0.0100     78.3900
    188      2.9050    -36.8340     23.8370      1.7700     78.3900
    189      3.0640    -36.4810     24.8780      0.0100     78.3900
    190      1.5310    -36.7620     23.5050      1.5900     78.3900
    191      1.3010    -35.8270     23.4830      0.0100     78.3900
    192      3.7510    -36.0470     22.8410      1.7700     78.3900
    193      4.7940    -35.9280     23.2190      0.0100     78.3900
    194      3.1640    -34.7940     22.4230      1.5900     78.3900
    195      3.4750    -33.4750     23.2310      2.1000     78.3900
    196      4.9380    -33.2900     23.2410      1.5900     78.3900
    197      2.6650    -32.3830     22.6500      1.5900     78.3900
    198      3.0060    -33.7500     24.7030      1.5900     78.3900
    199      1.6030    -33.7420     25.0550      1.7700     78.3900
    200      1.0250    -34.4870     24.4640      0.0100     78.3900
    201      1.1570    -32.7390     24.8520      0.0100     78.3900
    202      1.3980    -34.0560     26.5460      1.7700     78.3900
    203      0.3190    -34.0550     26.8020      0.0100     78.3900
    204      1.9160    -35.3740     26.8860      1.5900     78.3900
    205      2.4520    -35.3500     28.2040      1.7700     78.3900
    206      1.8720    -36.1030     28.7880      0.0100     78.3900
    207      3.9030    -35.7060     28.2180      1.6800     78.3900
    208      4.6630    -35.5850     27.0740      1.7700     78.3900
    209      4.1420    -35.1710     26.2090      0.0100     78.3900
    210      4.4650    -36.1680     29.3900      1.7700     78.3900
    211      3.8310    -36.2760     30.4340      1.5900     78.3900
    212      5.7930    -36.5050     29.2960      1.6800     78.3900
    213      6.2320    -36.8040     30.1610      0.0100     78.3900
    214      6.6090    -36.4210     28.1890      1.7700     78.3900
    215      7.7920    -36.7440     28.2680      1.5900     78.3900
    216      5.9580    -35.9250     27.0160      1.7700     78.3900
    217      6.5380    -35.8170     26.1020      0.0100     78.3900
    218      2.1740    -33.9630     28.7720      1.7700     78.3900
    219      2.9760    -33.6250     29.4540      0.0100     78.3900
    220      0.9380    -33.9430     29.4590      1.5900     78.3900
    221      0.7630    -33.0200     29.6810      0.0100     78.3900
    222      2.1190    -33.1140     27.5070      1.7700     78.3900
    223      3.1440    -32.9690     27.0940      0.0100     78.3900
    224      1.3660    -31.8890     27.6290      1.5900     78.3900
    225      2.1340    -30.5310     27.7950      2.1000     78.3900
    226      3.3140    -30.5140     26.9090      1.5900     78.3900
    227      1.1680    -29.4220     27.6470      1.5900     78.3900
    228      2.6270    -30.5730     29.2920      1.5900     78.3900
    229      1.6460    -30.4790     30.3550      1.7700     78.3900
    230      0.8310    -31.2340     30.2400      0.0100     78.3900
    231      1.1720    -29.4690     30.3460      0.0100     78.3900
    232      2.2940    -30.6780     31.7300      1.7700     78.3900
    233      1.5500    -30.5400     32.5470      0.0100     78.3900
    234      2.8200    -32.0310     31.8390      1.5900     78.3900
    235      4.0600    -31.9940     32.5370      1.7700     78.3900
    236      3.9290    -32.6800     33.4070      0.0100     78.3900
    237      5.2010    -32.4760     31.7070      1.6800     78.3900
    238      5.1020    -32.4790     30.3370      1.7700     78.3900
    239      4.1610    -32.1180     29.9290      0.0100     78.3900
    240      6.0880    -32.9480     29.5620      1.7700     78.3900
    241      6.0010    -32.9950     28.4780      0.0100     78.3900
    242      6.3830    -32.8950     32.3090      1.7700     78.3900
    243      6.4810    -32.8500     33.5440      1.5900     78.3900
    244      7.4020    -33.3500     31.5440      1.6800     78.3900
    245      7.2750    -33.3970     30.2070      1.7700     78.3900
    246      8.2820    -33.8720     29.4780      1.6800     78.3900
    247      9.1130    -34.1970     29.9350      0.0100     78.3900
    248      8.2430    -33.9180     28.4820      0.0100     78.3900
    249      4.2610    -30.5770     33.0550      1.7700     78.3900
    250      5.3330    -30.2850     33.0750      0.0100     78.3900
    251      3.6970    -30.4500     34.3520      1.5900     78.3900
    252      3.6730    -29.5060     34.5890      0.0100     78.3900
    253      3.4960    -29.7680     32.0130      1.7700     78.3900
    254      4.0950    -29.6790     31.0810      0.0100     78.3900
    255      3.0580    -28.4750     32.4700      1.5900     78.3900
    256      3.8300    -27.8930     32.6100      0.0100     78.3900
    257     17.3260    -37.9670     34.4090      0.0100     78.3900
    258     16.4760    -37.6260     34.7330      1.5900     78.3900
    259     16.6760    -37.2450     36.1030      1.7700     78.3900
    260     17.4830    -36.4780     36.1590      0.0100     78.3900
    261     17.0200    -38.1320     36.6800      0.0100     78.3900
    262     15.4110    -36.6870     36.7630      1.7700     78.3900
    263     15.5810    -36.4820     37.8410      0.0100     78.3900
    264     15.0530    -35.4190     36.1380      1.5900     78.3900
    265     13.6380    -35.3340     36.0430      1.7700     78.3900
    266     13.3290    -34.3890     36.5500      0.0100     78.3900
    267     13.1830    -35.3010     34.6470      1.6800     78.3900
    268     11.9480    -34.8940     34.2150      1.7700     78.3900
    269      8.7750    -33.6820     34.8810      1.6800     78.3900
    270      8.7800    -33.5740     35.8710      0.0100     78.3900
    271      7.9620    -33.3950     34.3660      0.0100     78.3900
    272     10.9400    -34.4540     34.9950      1.6800     78.3900
    273      9.8700    -34.1080     34.2850      1.7700     78.3900
    274      9.8180    -34.1840     32.9170      1.6800     78.3900
    275      8.9770    -33.8760     32.4550      0.0100     78.3900
    276     10.8460    -34.6160     32.0870      1.7700     78.3900
    277     10.7160    -34.6390     30.8590      1.5900     78.3900
    278     11.9840    -35.0100     32.8380      1.7700     78.3900
    279     13.2130    -35.4990     32.4120      1.6800     78.3900
    280     13.8940    -35.6630     33.5240      1.7700     78.3900
    281     14.9190    -36.0360     33.5960      0.0100     78.3900
    282     13.0590    -36.5110     36.7910      1.7700     78.3900
    283     12.0980    -36.8560     36.3620      0.0100     78.3900
    284     12.8740    -36.1760     38.1520      1.5900     78.3900
    285     12.4980    -36.9610     38.5680      0.0100     78.3900
    286     14.1520    -37.5570     36.6140      1.7700     78.3900
    287     14.1520    -37.9430     35.5690      0.0100     78.3900
    288     14.1550    -38.6130     37.6030      1.5900     78.3900
    289     13.3200    -39.9220     37.3210      2.1000     78.3900
    290     13.6010    -40.3760     35.9410      1.5900     78.3900
    291     13.5690    -40.8940     38.4070      1.5900     78.3900
    292     11.8290    -39.4390     37.4000      1.5900     78.3900
    293     11.2310    -39.0810     38.6680      1.7700     78.3900
    294     11.8350    -38.3120     39.2020      0.0100     78.3900
    295     11.1580    -39.9680     39.3410      0.0100     78.3900
    296      9.8160    -38.5230     38.4550      1.7700     78.3900
    297      9.3860    -38.1630     39.4100      0.0100     78.3900
    298      9.8560    -37.3810     37.5430      1.5900     78.3900
    299      8.7120    -37.4100     36.6970      1.7700     78.3900
    300      8.1910    -36.4340     36.8120      0.0100     78.3900
    301      9.0810    -37.5940     35.2830      1.6800     78.3900
    302      9.0340    -37.6510     33.0820      1.7700     78.3900
    303     10.3030    -38.0700     33.4550      1.6800     78.3900
    304     10.2760    -38.0360     34.7650      1.7700     78.3900
    305     11.1080    -38.3160     35.4140      0.0100     78.3900
    306      7.1380    -37.0410     31.8040      1.6800     78.3900
    307      6.5260    -36.8020     32.9680      1.7700     78.3900
    308      5.4860    -36.4640     32.8880      0.0100     78.3900
    309      6.9940    -36.9390     34.2140      1.6800     78.3900
    310      8.2690    -37.3610     34.1980      1.7700     78.3900
    311      8.4240    -37.4750     31.8220      1.7700     78.3900
    312      9.0510    -37.7000     30.6520      1.6800     78.3900
    313     10.0240    -37.9400     30.6010      0.0100     78.3900
    314      8.5790    -37.4590     29.8000      0.0100     78.3900
    315      7.8110    -38.5210     37.1870      1.7700     78.3900
    316      7.2500    -38.9940     36.3590      0.0100     78.3900
    317      6.8920    -38.0490     38.1520      1.5900     78.3900
    318      6.4180    -38.8300     38.4790      0.0100     78.3900
    319      8.8190    -39.4830     37.7920      1.7700     78.3900
    320      9.3910    -39.9750     36.9730      0.0100     78.3900
    321      8.2550    -40.3990     38.7590      1.5900     78.3900
    322      8.2900    -41.9560     38.5050      2.1000     78.3900
    323      9.0970    -42.2660     37.3070      1.5900     78.3900
    324      8.6640    -42.6390     39.7600      1.5900     78.3900
    325      6.7920    -42.2940     38.1640      1.5900     78.3900
    326      5.6950    -41.9880     39.0530      1.7700     78.3900
    327      5.9540    -41.1920     39.7920      0.0100     78.3900
    328      5.4240    -42.8990     39.6320      0.0100     78.3900
    329      4.4530    -41.5200     38.2800      1.7700     78.3900
    330      3.6420    -41.2030     38.9740      0.0100     78.3900
    331      4.8240    -40.3700     37.4550      1.5900     78.3900
    332      4.1870    -40.4680     36.1920      1.7700     78.3900
    333      3.6210    -39.5180     36.0480      0.0100     78.3900
    334      5.1600    -40.6180     35.0940      1.6800     78.3900
    335      6.1010    -40.6150     33.1050      1.7700     78.3900
    336      7.1010    -40.9680     33.9980      1.6800     78.3900
    337      6.4850    -40.9810     35.1560      1.7700     78.3900
    338      6.9620    -41.2050     36.1070      0.0100     78.3900
    339      4.9200    -40.0950     31.1260      1.6800     78.3900
    340      3.8450    -39.9360     31.9020      1.7700     78.3900
    341      2.9190    -39.6580     31.3880      0.0100     78.3900
    342      3.7340    -40.0470     33.2250      1.6800     78.3900
    343      4.9040    -40.3980     33.7690      1.7700     78.3900
    344      6.1010    -40.4420     31.7070      1.7700     78.3900
    345      7.2110    -40.5930     30.9500      1.6800     78.3900
    346      8.1130    -40.7810     31.3470      0.0100     78.3900
    347      7.1550    -40.4000     29.9640      0.0100     78.3900
    348      3.2130    -41.6190     36.2600      1.7700     78.3900
    349      3.1140    -42.1280     35.2880      0.0100     78.3900
    350      1.9470    -41.1620     36.6970      1.5900     78.3900
    351      1.4190    -41.9420     36.9190      0.0100     78.3900
    352      3.8650    -42.5410     37.2810      1.7700     78.3900
    353      4.7300    -43.0780     36.8280      0.0100     78.3900
    354      2.9340    -43.4300     37.9380      1.5900     78.3900
    355      2.7790    -44.9420     37.5200      2.1000     78.3900
    356      4.0920    -45.6040     37.6700      1.5900     78.3900
    357      1.6370    -45.5220     38.2620      1.5900     78.3900
    358      2.4070    -44.9050     35.9960      1.5900     78.3900
    359      1.1110    -44.5000     35.5110      1.7700     78.3900
    360      0.8100    -43.5250     35.9560      0.0100     78.3900
    361      0.3340    -45.2510     35.7810      0.0100     78.3900
    362      1.1150    -44.3190     33.9830      1.7700     78.3900
    363      0.1330    -43.9400     33.6200      0.0100     78.3900
    364      2.1100    -43.3210     33.6320      1.5900     78.3900
    365      2.8390    -43.7380     32.4990      1.7700     78.3900
    366      2.7980    -42.8910     31.7790      0.0100     78.3900
    367      4.2500    -43.9980     32.8180      1.6800     78.3900
    368      5.2750    -43.9050     31.9290      1.7700     78.3900
    369      6.4650    -43.3220     28.7350      1.6800     78.3900
    370      5.6390    -43.1590     28.1920      0.0100     78.3900
    371      7.3380    -43.5110     28.2770      0.0100     78.3900
    372      5.1580    -43.5740     30.6350      1.6800     78.3900
    373      6.3410    -43.5850     30.0170      1.7700     78.3900
    374      7.5160    -43.9010     30.6440      1.6800     78.3900
    375      8.3340    -43.9480     30.0530      0.0100     78.3900
    376      7.6680    -44.2340     31.9740      1.7700     78.3900
    377      8.7740    -44.5030     32.4460      1.5900     78.3900
    378      6.4200    -44.2190     32.6450      1.7700     78.3900
    379      6.1160    -44.4930     33.9670      1.6800     78.3900
    380      4.8190    -44.3430     34.0240      1.7700     78.3900
    381      4.2310    -44.4610     34.9230      0.0100     78.3900
    382      2.1210    -44.9360     31.9170      1.7700     78.3900
    383      2.8090    -45.6430     31.4030      0.0100     78.3900
    384      1.1300    -44.4570     31.0250      1.5900     78.3900
    385      0.5990    -45.1970     30.6760      0.0100     78.3900
    386      1.4960    -45.5610     33.1670      1.7700     78.3900
    387      2.2740    -46.0850     33.7660      0.0100     78.3900
    388      0.3230    -46.3890     32.9340      1.5900     78.3900
    389      0.5710    -47.8590     32.4110      2.1000     78.3900
    390      2.0330    -48.0760     32.3550      1.5900     78.3900
    391     -0.1980    -48.8190     33.2320      1.5900     78.3900
    392      0.0060    -47.8600     30.9410      1.5900     78.3900
    393     -1.3570    -47.5400     30.5790      1.7700     78.3900
    394     -1.8520    -46.9230     31.3660      0.0100     78.3900
    395     -1.9450    -48.4780     30.4720      0.0100     78.3900
    396     -1.4740    -46.7510     29.2550      1.7700     78.3900
    397     -2.4680    -46.2520     29.1890      0.0100     78.3900
    398     -0.4650    -45.7130     29.2190      1.5900     78.3900
    399      0.0540    -45.5880     27.9040      1.7700     78.3900
    400     -0.1000    -44.5140     27.6430      0.0100     78.3900
    401      1.5130    -45.8810     27.8210      1.6800     78.3900
    402      2.1590    -46.5880     28.8040      1.7700     78.3900
    403      1.5490    -46.9270     29.6330      0.0100     78.3900
    404      3.4760    -46.8130     28.7530      1.7700     78.3900
    405      3.9940    -47.3770     29.5190      0.0100     78.3900
    406      2.2260    -45.4580     26.7090      1.7700     78.3900
    407      1.6180    -44.8810     25.7960      1.5900     78.3900
    408      3.5600    -45.6710     26.6450      1.6800     78.3900
    409      4.1940    -46.3070     27.6430      1.7700     78.3900
    410      5.5050    -46.5000     27.5720      1.6800     78.3900
    411      5.9550    -47.1360     28.1990      0.0100     78.3900
    412      5.9860    -46.1570     26.7590      0.0100     78.3900
    413     -0.7900    -46.4470     26.9850      1.7700     78.3900
    414     -0.2090    -46.8840     26.1440      0.0100     78.3900
    415     -1.8700    -45.6770     26.4800      1.5900     78.3900
    416     -2.4850    -46.2800     26.0310      0.0100     78.3900
    417     -1.2690    -47.5340     27.9450      1.7700     78.3900
    418     -0.4460    -48.2600     28.1420      0.0100     78.3900
    419     -2.5060    -48.1610     27.5460      1.5900     78.3900
    420     -2.5030    -49.5890     26.8980      2.1000     78.3900
    421     -1.9970    -50.5410     27.9140      1.5900     78.3900
    422     -3.8500    -49.8550     26.3500      1.5900     78.3900
    423     -1.4870    -49.4490     25.7010      1.5900     78.3900
    424     -0.7250    -50.6020     25.2710      1.7700     78.3900
    425     -1.3900    -51.4710     25.0620      0.0100     78.3900
    426     -0.0150    -50.9050     26.0730      0.0100     78.3900
    427      0.0900    -50.3150     23.9970      1.7700     78.3900
    428     -0.5780    -50.0780     23.1410      0.0100     78.3900
    429      0.9370    -49.1490     24.2160      1.5900     78.3900
    430      2.2040    -49.3520     23.6160      1.7700     78.3900
    431      2.3800    -48.4900     22.9330      0.0100     78.3900
    432      3.2560    -49.3860     24.6360      1.6800     78.3900
    433      5.1910    -49.4170     25.6650      1.7700     78.3900
    434      4.2220    -49.4200     26.6700      1.6800     78.3900
    435      3.0990    -49.3860     26.0040      1.7700     78.3900
    436      2.1050    -49.3730     26.4580      0.0100     78.3900
    437      7.2690    -49.3860     24.5260      1.6800     78.3900
    438      6.5620    -49.3700     23.3930      1.7700     78.3900
    439      7.1560    -49.3580     22.4690      0.0100     78.3900
    440      5.2360    -49.3780     23.2300      1.6800     78.3900
    441      4.6060    -49.3900     24.4140      1.7700     78.3900
    442      6.5970    -49.4220     25.7070      1.7700     78.3900
    443      7.2540    -49.4720     26.8730      1.6800     78.3900
    444      6.7310    -49.3130     27.7190      0.0100     78.3900
    445      8.2180    -49.1910     26.8980      0.0100     78.3900
    446      2.1310    -50.6370     22.8100      1.7700     78.3900
    447      3.0970    -51.1830     22.7970      0.0100     78.3900
    448      1.7200    -50.3580     21.4850      1.5900     78.3900
    449      1.4930    -51.1980     21.0580      0.0100     78.3900
    450      1.0720    -51.4250     23.5750      1.7700     78.3900
    451      1.5060    -51.8250     24.5210      0.0100     78.3900
    452      0.4000    -52.4350     22.7890      1.5900     78.3900
    453      0.7150    -53.9680     22.9920      2.1000     78.3900
    454      0.3220    -54.3410     24.3670      1.5900     78.3900
    455      0.0670    -54.7230     21.8970      1.5900     78.3900
    456      2.2780    -54.0830     22.8620      1.5900     78.3900
    457      2.9360    -54.0810     21.5740      1.7700     78.3900
    458      2.6540    -53.1760     20.9890      0.0100     78.3900
    459      2.6520    -54.9780     20.9830      0.0100     78.3900
    460      4.4660    -54.0820     21.7190      1.7700     78.3900
    461      4.9630    -54.0740     20.7280      0.0100     78.3900
    462      4.8590    -52.8640     22.4070      1.5900     78.3900
    463      5.8860    -53.1480     23.3390      1.7700     78.3900
    464      6.7170    -52.4400     23.1140      0.0100     78.3900
    465      5.4510    -52.9280     24.7250      1.6800     78.3900
    466      6.2610    -52.7930     25.8230      1.7700     78.3900
    467      9.4130    -52.6940     27.2470      1.6800     78.3900
    468      9.8350    -52.5290     28.1370      0.0100     78.3900
    469      9.9970    -52.8560     26.4570      0.0100     78.3900
    470      7.6050    -52.8650     25.8320      1.6800     78.3900
    471      8.1130    -52.6700     27.0480      1.7700     78.3900
    472      7.3470    -52.4240     28.1540      1.6800     78.3900
    473      7.8080    -52.2870     29.0360      0.0100     78.3900
    474      5.9660    -52.3190     28.1650      1.7700     78.3900
    475      5.3840    -52.0900     29.2260      1.5900     78.3900
    476      5.4040    -52.5680     26.8840      1.7700     78.3900
    477      4.0750    -52.6070     26.4690      1.6800     78.3900
    478      4.1580    -52.8190     25.1790      1.7700     78.3900
    479      3.3150    -52.8860     24.4930      0.0100     78.3900
    480      6.3470    -54.5650     23.0920      1.7700     78.3900
    481      6.7050    -55.0660     24.0140      0.0100     78.3900
    482      7.3810    -54.5570     22.1270      1.5900     78.3900
    483      7.4850    -55.4630     21.8030      0.0100     78.3900
    484      5.0780    -55.2240     22.5530      1.7700     78.3900
    485      4.3590    -55.4180     23.3860      0.0100     78.3900
    486      5.3160    -56.3920     21.7190      1.5900     78.3900
    487      5.2080    -57.8230     22.3910      2.1000     78.3900
    488      3.8670    -57.9530     23.0060      1.5900     78.3900
    489      5.5550    -58.8640     21.3990      1.5900     78.3900
    490      6.3060    -57.8050     23.5220      1.5900     78.3900
    491      7.7120    -57.8590     23.1710      1.7700     78.3900
    492      8.0180    -56.9610     22.5920      0.0100     78.3900
    493      7.9300    -58.7520     22.5410      0.0100     78.3900
    494      8.6040    -57.9390     24.4200      1.7700     78.3900
    495      9.6620    -58.1310     24.1410      0.0100     78.3900
    496      8.5750    -56.6610     25.1190      1.5900     78.3900
    497      8.5750    -56.8930     26.5240      1.7700     78.3900
    498      9.4530    -56.3340     26.9220      0.0100     78.3900
    499      7.3340    -56.3960     27.1870      1.6800     78.3900
    500      6.1810    -56.2180     26.4570      1.7700     78.3900
    501      6.2540    -56.4350     25.3920      0.0100     78.3900
    502      5.0520    -55.7750     27.0270      1.7700     78.3900
    503      4.1450    -55.5860     26.4540      0.0100     78.3900
    504      7.3210    -56.1620     28.5580      1.7700     78.3900
    505      8.3520    -56.3680     29.2160      1.5900     78.3900
    506      6.1940    -55.7100     29.1510      1.6800     78.3900
    507      5.0770    -55.5160     28.4270      1.7700     78.3900
    508      3.9900    -55.0580     29.0410      1.6800     78.3900
    509      4.0320    -54.8420     30.0190      0.0100     78.3900
    510      3.1740    -54.7850     28.5310      0.0100     78.3900
    511      8.7950    -58.3830     26.7480      1.7700     78.3900
    512      8.2620    -58.7540     27.6500      0.0100     78.3900
    513     10.1830    -58.6630     26.8560      1.5900     78.3900
    514     10.3230    -59.6270     26.8070      0.0100     78.3900
    515      8.1750    -58.9630     25.4820      1.7700     78.3900
    516      7.0670    -58.9430     25.5600      0.0100     78.3900
    517      8.6390    -60.2780     25.1380      1.5900     78.3900
    518      8.2870    -60.9280     25.7730      0.0100     78.3900

     ----------------------------
     INPUT FOR TESSERA DEFINITION
     ----------------------------
     NTSALL  =        60     MTHALL  =         4
     MTHAUT  =         0     AUTFRE  =    2.0000
     NTSFRZ  =        60     KEEPSM  =         0
     AREAKP  =   10.0000     BONDRY  =    1.0000
     AREATL  =    0.0100

     SPHERE     INITS       METHOD
          1        60       FIXPVA
          2        60       FIXPVA
          3        60       FIXPVA
          4        60       FIXPVA
          5        60       FIXPVA
          6        60       FIXPVA
          7        60       FIXPVA
          8        60       FIXPVA
          9        60       FIXPVA
         10        60       FIXPVA
         11        60       FIXPVA
         12        60       FIXPVA
         13        60       FIXPVA
         14        60       FIXPVA
         15        60       FIXPVA
         16        60       FIXPVA
         17        60       FIXPVA
         18        60       FIXPVA
         19        60       FIXPVA
         20        60       FIXPVA
         21        60       FIXPVA
         22        60       FIXPVA
         23        60       FIXPVA
         24        60       FIXPVA
         25        60       FIXPVA
         26        60       FIXPVA
         27        60       FIXPVA
         28        60       FIXPVA
         29        60       FIXPVA
         30        60       FIXPVA
         31        60       FIXPVA
         32        60       FIXPVA
         33        60       FIXPVA
         34        60       FIXPVA
         35        60       FIXPVA
         36        60       FIXPVA
         37        60       FIXPVA
         38        60       FIXPVA
         39        60       FIXPVA
         40        60       FIXPVA
         41        60       FIXPVA
         42        60       FIXPVA
         43        60       FIXPVA
         44        60       FIXPVA
         45        60       FIXPVA
         46        60       FIXPVA
         47        60       FIXPVA
         48        60       FIXPVA
         49        60       FIXPVA
         50        60       FIXPVA
         51        60       FIXPVA
         52        60       FIXPVA
         53        60       FIXPVA
         54        60       FIXPVA
         55        60       FIXPVA
         56        60       FIXPVA
         57        60       FIXPVA
         58        60       FIXPVA
         59        60       FIXPVA
         60        60       FIXPVA
         61        60       FIXPVA
         62        60       FIXPVA
         63        60       FIXPVA
         64        60       FIXPVA
         65        60       FIXPVA
         66        60       FIXPVA
         67        60       FIXPVA
         68        60       FIXPVA
         69        60       FIXPVA
         70        60       FIXPVA
         71        60       FIXPVA
         72        60       FIXPVA
         73        60       FIXPVA
         74        60       FIXPVA
         75        60       FIXPVA
         76        60       FIXPVA
         77        60       FIXPVA
         78        60       FIXPVA
         79        60       FIXPVA
         80        60       FIXPVA
         81        60       FIXPVA
         82        60       FIXPVA
         83        60       FIXPVA
         84        60       FIXPVA
         85        60       FIXPVA
         86        60       FIXPVA
         87        60       FIXPVA
         88        60       FIXPVA
         89        60       FIXPVA
         90        60       FIXPVA
         91        60       FIXPVA
         92        60       FIXPVA
         93        60       FIXPVA
         94        60       FIXPVA
         95        60       FIXPVA
         96        60       FIXPVA
         97        60       FIXPVA
         98        60       FIXPVA
         99        60       FIXPVA
        100        60       FIXPVA
        101        60       FIXPVA
        102        60       FIXPVA
        103        60       FIXPVA
        104        60       FIXPVA
        105        60       FIXPVA
        106        60       FIXPVA
        107        60       FIXPVA
        108        60       FIXPVA
        109        60       FIXPVA
        110        60       FIXPVA
        111        60       FIXPVA
        112        60       FIXPVA
        113        60       FIXPVA
        114        60       FIXPVA
        115        60       FIXPVA
        116        60       FIXPVA
        117        60       FIXPVA
        118        60       FIXPVA
        119        60       FIXPVA
        120        60       FIXPVA
        121        60       FIXPVA
        122        60       FIXPVA
        123        60       FIXPVA
        124        60       FIXPVA
        125        60       FIXPVA
        126        60       FIXPVA
        127        60       FIXPVA
        128        60       FIXPVA
        129        60       FIXPVA
        130        60       FIXPVA
        131        60       FIXPVA
        132        60       FIXPVA
        133        60       FIXPVA
        134        60       FIXPVA
        135        60       FIXPVA
        136        60       FIXPVA
        137        60       FIXPVA
        138        60       FIXPVA
        139        60       FIXPVA
        140        60       FIXPVA
        141        60       FIXPVA
        142        60       FIXPVA
        143        60       FIXPVA
        144        60       FIXPVA
        145        60       FIXPVA
        146        60       FIXPVA
        147        60       FIXPVA
        148        60       FIXPVA
        149        60       FIXPVA
        150        60       FIXPVA
        151        60       FIXPVA
        152        60       FIXPVA
        153        60       FIXPVA
        154        60       FIXPVA
        155        60       FIXPVA
        156        60       FIXPVA
        157        60       FIXPVA
        158        60       FIXPVA
        159        60       FIXPVA
        160        60       FIXPVA
        161        60       FIXPVA
        162        60       FIXPVA
        163        60       FIXPVA
        164        60       FIXPVA
        165        60       FIXPVA
        166        60       FIXPVA
        167        60       FIXPVA
        168        60       FIXPVA
        169        60       FIXPVA
        170        60       FIXPVA
        171        60       FIXPVA
        172        60       FIXPVA
        173        60       FIXPVA
        174        60       FIXPVA
        175        60       FIXPVA
        176        60       FIXPVA
        177        60       FIXPVA
        178        60       FIXPVA
        179        60       FIXPVA
        180        60       FIXPVA
        181        60       FIXPVA
        182        60       FIXPVA
        183        60       FIXPVA
        184        60       FIXPVA
        185        60       FIXPVA
        186        60       FIXPVA
        187        60       FIXPVA
        188        60       FIXPVA
        189        60       FIXPVA
        190        60       FIXPVA
        191        60       FIXPVA
        192        60       FIXPVA
        193        60       FIXPVA
        194        60       FIXPVA
        195        60       FIXPVA
        196        60       FIXPVA
        197        60       FIXPVA
        198        60       FIXPVA
        199        60       FIXPVA
        200        60       FIXPVA
        201        60       FIXPVA
        202        60       FIXPVA
        203        60       FIXPVA
        204        60       FIXPVA
        205        60       FIXPVA
        206        60       FIXPVA
        207        60       FIXPVA
        208        60       FIXPVA
        209        60       FIXPVA
        210        60       FIXPVA
        211        60       FIXPVA
        212        60       FIXPVA
        213        60       FIXPVA
        214        60       FIXPVA
        215        60       FIXPVA
        216        60       FIXPVA
        217        60       FIXPVA
        218        60       FIXPVA
        219        60       FIXPVA
        220        60       FIXPVA
        221        60       FIXPVA
        222        60       FIXPVA
        223        60       FIXPVA
        224        60       FIXPVA
        225        60       FIXPVA
        226        60       FIXPVA
        227        60       FIXPVA
        228        60       FIXPVA
        229        60       FIXPVA
        230        60       FIXPVA
        231        60       FIXPVA
        232        60       FIXPVA
        233        60       FIXPVA
        234        60       FIXPVA
        235        60       FIXPVA
        236        60       FIXPVA
        237        60       FIXPVA
        238        60       FIXPVA
        239        60       FIXPVA
        240        60       FIXPVA
        241        60       FIXPVA
        242        60       FIXPVA
        243        60       FIXPVA
        244        60       FIXPVA
        245        60       FIXPVA
        246        60       FIXPVA
        247        60       FIXPVA
        248        60       FIXPVA
        249        60       FIXPVA
        250        60       FIXPVA
        251        60       FIXPVA
        252        60       FIXPVA
        253        60       FIXPVA
        254        60       FIXPVA
        255        60       FIXPVA
        256        60       FIXPVA
        257        60       FIXPVA
        258        60       FIXPVA
        259        60       FIXPVA
        260        60       FIXPVA
        261        60       FIXPVA
        262        60       FIXPVA
        263        60       FIXPVA
        264        60       FIXPVA
        265        60       FIXPVA
        266        60       FIXPVA
        267        60       FIXPVA
        268        60       FIXPVA
        269        60       FIXPVA
        270        60       FIXPVA
        271        60       FIXPVA
        272        60       FIXPVA
        273        60       FIXPVA
        274        60       FIXPVA
        275        60       FIXPVA
        276        60       FIXPVA
        277        60       FIXPVA
        278        60       FIXPVA
        279        60       FIXPVA
        280        60       FIXPVA
        281        60       FIXPVA
        282        60       FIXPVA
        283        60       FIXPVA
        284        60       FIXPVA
        285        60       FIXPVA
        286        60       FIXPVA
        287        60       FIXPVA
        288        60       FIXPVA
        289        60       FIXPVA
        290        60       FIXPVA
        291        60       FIXPVA
        292        60       FIXPVA
        293        60       FIXPVA
        294        60       FIXPVA
        295        60       FIXPVA
        296        60       FIXPVA
        297        60       FIXPVA
        298        60       FIXPVA
        299        60       FIXPVA
        300        60       FIXPVA
        301        60       FIXPVA
        302        60       FIXPVA
        303        60       FIXPVA
        304        60       FIXPVA
        305        60       FIXPVA
        306        60       FIXPVA
        307        60       FIXPVA
        308        60       FIXPVA
        309        60       FIXPVA
        310        60       FIXPVA
        311        60       FIXPVA
        312        60       FIXPVA
        313        60       FIXPVA
        314        60       FIXPVA
        315        60       FIXPVA
        316        60       FIXPVA
        317        60       FIXPVA
        318        60       FIXPVA
        319        60       FIXPVA
        320        60       FIXPVA
        321        60       FIXPVA
        322        60       FIXPVA
        323        60       FIXPVA
        324        60       FIXPVA
        325        60       FIXPVA
        326        60       FIXPVA
        327        60       FIXPVA
        328        60       FIXPVA
        329        60       FIXPVA
        330        60       FIXPVA
        331        60       FIXPVA
        332        60       FIXPVA
        333        60       FIXPVA
        334        60       FIXPVA
        335        60       FIXPVA
        336        60       FIXPVA
        337        60       FIXPVA
        338        60       FIXPVA
        339        60       FIXPVA
        340        60       FIXPVA
        341        60       FIXPVA
        342        60       FIXPVA
        343        60       FIXPVA
        344        60       FIXPVA
        345        60       FIXPVA
        346        60       FIXPVA
        347        60       FIXPVA
        348        60       FIXPVA
        349        60       FIXPVA
        350        60       FIXPVA
        351        60       FIXPVA
        352        60       FIXPVA
        353        60       FIXPVA
        354        60       FIXPVA
        355        60       FIXPVA
        356        60       FIXPVA
        357        60       FIXPVA
        358        60       FIXPVA
        359        60       FIXPVA
        360        60       FIXPVA
        361        60       FIXPVA
        362        60       FIXPVA
        363        60       FIXPVA
        364        60       FIXPVA
        365        60       FIXPVA
        366        60       FIXPVA
        367        60       FIXPVA
        368        60       FIXPVA
        369        60       FIXPVA
        370        60       FIXPVA
        371        60       FIXPVA
        372        60       FIXPVA
        373        60       FIXPVA
        374        60       FIXPVA
        375        60       FIXPVA
        376        60       FIXPVA
        377        60       FIXPVA
        378        60       FIXPVA
        379        60       FIXPVA
        380        60       FIXPVA
        381        60       FIXPVA
        382        60       FIXPVA
        383        60       FIXPVA
        384        60       FIXPVA
        385        60       FIXPVA
        386        60       FIXPVA
        387        60       FIXPVA
        388        60       FIXPVA
        389        60       FIXPVA
        390        60       FIXPVA
        391        60       FIXPVA
        392        60       FIXPVA
        393        60       FIXPVA
        394        60       FIXPVA
        395        60       FIXPVA
        396        60       FIXPVA
        397        60       FIXPVA
        398        60       FIXPVA
        399        60       FIXPVA
        400        60       FIXPVA
        401        60       FIXPVA
        402        60       FIXPVA
        403        60       FIXPVA
        404        60       FIXPVA
        405        60       FIXPVA
        406        60       FIXPVA
        407        60       FIXPVA
        408        60       FIXPVA
        409        60       FIXPVA
        410        60       FIXPVA
        411        60       FIXPVA
        412        60       FIXPVA
        413        60       FIXPVA
        414        60       FIXPVA
        415        60       FIXPVA
        416        60       FIXPVA
        417        60       FIXPVA
        418        60       FIXPVA
        419        60       FIXPVA
        420        60       FIXPVA
        421        60       FIXPVA
        422        60       FIXPVA
        423        60       FIXPVA
        424        60       FIXPVA
        425        60       FIXPVA
        426        60       FIXPVA
        427        60       FIXPVA
        428        60       FIXPVA
        429        60       FIXPVA
        430        60       FIXPVA
        431        60       FIXPVA
        432        60       FIXPVA
        433        60       FIXPVA
        434        60       FIXPVA
        435        60       FIXPVA
        436        60       FIXPVA
        437        60       FIXPVA
        438        60       FIXPVA
        439        60       FIXPVA
        440        60       FIXPVA
        441        60       FIXPVA
        442        60       FIXPVA
        443        60       FIXPVA
        444        60       FIXPVA
        445        60       FIXPVA
        446        60       FIXPVA
        447        60       FIXPVA
        448        60       FIXPVA
        449        60       FIXPVA
        450        60       FIXPVA
        451        60       FIXPVA
        452        60       FIXPVA
        453        60       FIXPVA
        454        60       FIXPVA
        455        60       FIXPVA
        456        60       FIXPVA
        457        60       FIXPVA
        458        60       FIXPVA
        459        60       FIXPVA
        460        60       FIXPVA
        461        60       FIXPVA
        462        60       FIXPVA
        463        60       FIXPVA
        464        60       FIXPVA
        465        60       FIXPVA
        466        60       FIXPVA
        467        60       FIXPVA
        468        60       FIXPVA
        469        60       FIXPVA
        470        60       FIXPVA
        471        60       FIXPVA
        472        60       FIXPVA
        473        60       FIXPVA
        474        60       FIXPVA
        475        60       FIXPVA
        476        60       FIXPVA
        477        60       FIXPVA
        478        60       FIXPVA
        479        60       FIXPVA
        480        60       FIXPVA
        481        60       FIXPVA
        482        60       FIXPVA
        483        60       FIXPVA
        484        60       FIXPVA
        485        60       FIXPVA
        486        60       FIXPVA
        487        60       FIXPVA
        488        60       FIXPVA
        489        60       FIXPVA
        490        60       FIXPVA
        491        60       FIXPVA
        492        60       FIXPVA
        493        60       FIXPVA
        494        60       FIXPVA
        495        60       FIXPVA
        496        60       FIXPVA
        497        60       FIXPVA
        498        60       FIXPVA
        499        60       FIXPVA
        500        60       FIXPVA
        501        60       FIXPVA
        502        60       FIXPVA
        503        60       FIXPVA
        504        60       FIXPVA
        505        60       FIXPVA
        506        60       FIXPVA
        507        60       FIXPVA
        508        60       FIXPVA
        509        60       FIXPVA
        510        60       FIXPVA
        511        60       FIXPVA
        512        60       FIXPVA
        513        60       FIXPVA
        514        60       FIXPVA
        515        60       FIXPVA
        516        60       FIXPVA
        517        60       FIXPVA
        518        60       FIXPVA

     ------------------------------
      FIXPVA TESSELLATION FOR PCM
         PEIFENG SU AND HUI LI
     UNIVERSITY OF NEBRASKA-LINCOLN
     ------------------------------


 PCM DIMENSIONS: MXSP=   518, MXTS=     20720, MEMORY=        212901

     INPUT FOR CAVITY DEFINITION 
     ---------------------------
   ATOM               COORDINATES                RADIUS       EPS
      1      4.2650    -52.4760     39.7980      0.0100     78.3900
      2      4.9550    -52.7450     39.1620      1.5900     78.3900
      3      6.0270    -53.3100     39.9300      1.7700     78.3900
      4      5.6270    -54.1450     40.5510      0.0100     78.3900
      5      6.4340    -52.5440     40.6300      0.0100     78.3900
      6      7.1640    -53.8550     39.0600      1.7700     78.3900
      7      7.9920    -54.2390     39.6940      0.0100     78.3900
      8      6.6730    -54.9720     38.2670      1.5900     78.3900
      9      7.2770    -54.9390     36.9870      1.7700     78.3900
     10      7.7660    -55.9290     36.8320      0.0100     78.3900
     11      6.2760    -54.7280     35.9320      1.6800     78.3900
     12      6.4530    -54.9670     34.5960      1.7700     78.3900
     13      8.4590    -56.0060     31.9780      1.6800     78.3900
     14      9.3230    -56.2140     32.4330      0.0100     78.3900
     15      8.3920    -56.1280     30.9850      0.0100     78.3900
     16      7.5810    -55.4110     34.0170      1.6800     78.3900
     17      7.4480    -55.5740     32.7060      1.7700     78.3900
     18      6.2840    -55.3150     32.0310      1.6800     78.3900
     19      6.2570    -55.4990     31.0410      0.0100     78.3900
     20      5.0990    -54.8680     32.6030      1.7700     78.3900
     21      4.0850    -54.6790     31.9230      1.5900     78.3900
     22      5.2390    -54.6780     34.0030      1.7700     78.3900
     23      4.3180    -54.2430     34.9460      1.6800     78.3900
     24      4.9770    -54.2890     36.0820      1.7700     78.3900
     25      4.5710    -54.0210     37.0620      0.0100     78.3900
     26      8.3330    -53.8550     37.0130      1.7700     78.3900
     27      8.4700    -53.3710     36.0240      0.0100     78.3900
     28      9.5610    -54.3950     37.4650      1.5900     78.3900
     29     10.1610    -53.6470     37.5700      0.0100     78.3900
     30      7.7530    -52.8790     38.0280      1.7700     78.3900
     31      6.8980    -52.3250     37.5800      0.0100     78.3900
     32      8.7220    -52.0120     38.6600      1.5900     78.3900
     33      9.0020    -50.5670     38.0930      2.1000     78.3900
     34      7.7040    -49.8960     37.8780      1.5900     78.3900
     35      9.9660    -49.9030     38.9980      1.5900     78.3900
     36      9.6770    -50.8030     36.6940      1.5900     78.3900
     37     10.9860    -51.3890     36.5290      1.7700     78.3900
     38     11.0750    -52.3530     37.0750      0.0100     78.3900
     39     11.7670    -50.7080     36.9350      0.0100     78.3900
     40     11.2940    -51.6550     35.0440      1.7700     78.3900
     41     12.3110    -52.0900     34.9270      0.0100     78.3900
     42     10.3390    -52.6130     34.4950      1.5900     78.3900
     43     10.0010    -52.2500     33.1630      1.7700     78.3900
     44     10.2530    -53.1330     32.5290      0.0100     78.3900
     45      8.5470    -51.9220     33.0180      1.6800     78.3900
     46      7.8050    -51.5460     34.1150      1.7700     78.3900
     47      8.3490    -51.5270     35.0550      0.0100     78.3900
     48      7.9630    -51.9900     31.7700      1.7700     78.3900
     49      8.5900    -52.2890     30.7580      1.5900     78.3900
     50      6.6170    -51.7110     31.7410      1.6800     78.3900
     51      6.1480    -51.7800     30.8490      0.0100     78.3900
     52      5.8110    -51.3840     32.8070      1.7700     78.3900
     53      4.6100    -51.2060     32.6390      1.5900     78.3900
     54      6.4930    -51.2840     34.0590      1.7700     78.3900
     55      5.9190    -51.0330     34.9490      0.0100     78.3900
     56     10.9050    -51.0930     32.7800      1.7700     78.3900
     57     10.3930    -50.3930     32.0990      0.0100     78.3900
     58     12.0950    -51.5710     32.1800      1.5900     78.3900
     59     12.6800    -50.8030     32.0780      0.0100     78.3900
     60     11.1830    -50.4320     34.1240      1.7700     78.3900
     61     10.2910    -49.8570     34.4610      0.0100     78.3900
     62     12.4030    -49.6620     34.1770      1.5900     78.3900
     63     12.4020    -48.1400     33.7770      2.1000     78.3900
     64     11.1410    -47.5400     34.2590      1.5900     78.3900
     65     13.6630    -47.5310     34.2580      1.5900     78.3900
     66     12.4200    -48.1430     32.1990      1.5900     78.3900
     67     11.7970    -47.0630     31.4510      1.7700     78.3900
     68     12.5730    -46.3590     31.0810      0.0100     78.3900
     69     11.0790    -46.4620     32.0630      0.0100     78.3900
     70     11.0200    -47.5960     30.2400      1.7700     78.3900
     71     11.7030    -48.0740     29.5030      0.0100     78.3900
     72     10.0860    -48.6080     30.6830      1.5900     78.3900
     73      8.8550    -48.4730     30.0210      1.7700     78.3900
[...]
   466   15   6.0   0.00    0.0    0.000000    0.708872    0.710743
   467   15   7.0  20.00   39.2   -0.189532   -0.989708   -0.999017
   468   15   1.0   0.00    0.0    0.000000    0.449946    0.448506
   469   15   1.0   0.00    0.0    0.000000    0.452805    0.452337
   470   15   7.0   4.06    7.9    0.074671   -0.749932   -0.754706
   471   15   6.0   0.01    0.0    0.000856    1.008789    1.009469
   472   15   7.0   0.04    0.1    0.001227   -0.928960   -1.003987
   473   15   1.0   0.00    0.0    0.000000    0.453394    0.514419
   474   15   6.0   0.00    0.0    0.000000    0.904387    0.907932
   475   15   8.0   4.97   10.9    0.130419   -0.761410   -0.736250
   476   15   6.0   0.00    0.0    0.000000   -0.051834   -0.039616
   477   15   7.0   5.61   11.0    0.114648   -0.585488   -0.593318
   478   15   6.0   2.34    4.1    0.005746    0.286857    0.267727
   479   15   1.0   0.00    0.0    0.000000    0.253521    0.287381
   480   15   6.0   0.00    0.0    0.000062    0.139942    0.115583
   481   15   1.0   0.00    0.0    0.000000    0.194971    0.229025
   482   15   8.0  17.61   38.5    0.060866   -0.835090   -0.848593
   483   15   1.0   0.00    0.0    0.000000    0.505251    0.524384
   484   15   6.0   0.94    1.7   -0.009358    0.131352    0.097119
   485   15   1.0   0.00    0.0    0.000000    0.239784    0.244618
   486   15   8.0   4.79   10.5    0.061754   -0.795865   -0.800935
   487   15  15.0   7.86    9.8    0.113478    1.611748    1.652709
   488   15   8.0  14.62   32.0    0.334284   -0.895298   -0.889519
   489   15   8.0  18.27   39.9    0.357125   -0.893588   -0.887476
   490   15   8.0   0.90    2.0    0.019493   -0.978187   -0.791387
   491   16   6.0  10.06   17.7   -0.072011    0.200703   -0.020677
   492   16   1.0   0.00    0.0    0.000000    0.155704    0.168968
   493   16   1.0   0.00    0.0    0.000000    0.247787    0.228909
   494   16   6.0   7.71   13.6   -0.048547    0.091995    0.147563
   495   16   1.0   0.00    0.0    0.000000    0.251549    0.223375
   496   16   8.0   3.92    8.6    0.051399   -0.724920   -0.733021
   497   16   6.0   4.58    8.1   -0.038328    0.419844    0.419608
   498   16   1.0   0.00    0.0    0.000000    0.254392    0.244866
   499   16   7.0   0.00    0.0    0.000000   -0.824438   -0.833399
   500   16   6.0   2.29    4.0   -0.008492    0.199192    0.176703
   501   16   1.0   0.00    0.0    0.000000    0.293785    0.319349
   502   16   6.0   8.38   14.8   -0.045479   -0.386477   -0.396257
   503   16   1.0   0.00    0.0    0.000000    0.276023    0.282622
   504   16   6.0   2.42    4.3   -0.002471    1.062792    1.071792
   505   16   8.0   8.91   19.5    0.137370   -0.800725   -0.771078
   506   16   7.0   2.00    3.9    0.019575   -0.871104   -0.863154
   507   16   6.0   0.37    0.6    0.000252    0.725261    0.733721
   508   16   7.0  16.58   32.5   -0.074475   -0.947640   -0.999370
   509   16   1.0   0.00    0.0    0.000000    0.460191    0.500631
   510   16   1.0   0.00    0.0    0.000000    0.452559    0.451115
   511   16   6.0   6.24   11.0   -0.053864    0.123002    0.123578
   512   16   1.0   0.00    0.0    0.000000    0.226934    0.227050
   513   16   8.0  20.25   44.3    0.055932   -0.838385   -0.841929
   514   16   1.0   0.00    0.0    0.000000    0.499311    0.500476
   515   16   6.0   4.64    8.2   -0.042341    0.164168    0.145945
   516   16   1.0   0.00    0.0    0.000000    0.219690    0.223609
   517   16   8.0  22.70   49.6   -0.023734   -0.849935   -0.852480
   518   16   1.0   0.00    0.0    0.000000    0.508402    0.508696

 Done with FMO properties.
 CPU     0: STEP CPU TIME=     0.01 TOTAL CPU TIME=      35711.7 (    595.2 MIN)
 TOTAL WALL CLOCK TIME=      82284.6 SECONDS, CPU UTILIZATION IS    43.40%
 CPU     0: STEP CPU TIME=     0.00 TOTAL CPU TIME=      35711.7 (    595.2 MIN)
 TOTAL WALL CLOCK TIME=      82284.6 SECONDS, CPU UTILIZATION IS    43.40%

 Total timing statistics in pairs (CPU,wall) for each rank, sec

    Rank   total     SCF    corr     DFT    CPHF     EFP    solv     ESP    geom
 -------------------------------------------------------------------------------
       1   35711.7   9245.7  13350.9      0.0    0.0   0.0  337.4 12054.6    0.0
       1   82284.7  19595.9  35421.6      0.0    0.0   0.0  909.4 24605.2    0.0
       2   36096.9   9158.7  13791.2      0.0    0.0   0.0  342.6 12057.1    0.0
       2   82284.7  19592.3  35415.6      0.0    0.0   0.0  909.2 24604.0    0.0
       3   35704.6   9164.0  13272.7      0.0    0.0   0.0  342.3 12189.5    0.0
       3   82284.7  19592.3  35415.5      0.0    0.0   0.0  909.7 24604.1    0.0
       4   36708.0   9154.4  13876.1      0.0    0.0   0.0  341.1 12597.1    0.0
       4   82284.7  19593.8  35415.5      0.0    0.0   0.0  907.6 24603.8    0.0
       5   35725.3   9145.4  13505.2      0.0    0.0   0.0  339.3 11992.2    0.0
       5   82284.7  19592.6  35415.6      0.0    0.0   0.0  909.6 24604.2    0.0
       6   35505.3   9168.0  13329.7      0.0    0.0   0.0  339.6 11967.3    0.0
       6   82284.7  19594.0  35415.6      0.0    0.0   0.0  907.4 24603.9    0.0
       7   36269.8   9107.4  13879.6      0.0    0.0   0.0  341.3 12194.2    0.0
       7   82284.7  19594.0  35415.5      0.0    0.0   0.0  907.8 24603.9    0.0
       8   37035.5   9193.1  13918.0      0.0    0.0   0.0  342.2 12841.2    0.0
       8   82284.7  19594.4  35415.5      0.0    0.0   0.0  906.7 24603.9    0.0
       9   35547.6   9197.2  13417.9      0.0    0.0   0.0  332.6 11871.4    0.0
       9   82284.7  19594.2  35415.5      0.0    0.0   0.0  906.9 24604.5    0.0
      10   35619.1   9112.1  13701.1      0.0    0.0   0.0  335.6 11758.6    0.0
      10   82284.7  19593.7  35415.5      0.0    0.0   0.0  906.8 24604.3    0.0
      11   35376.1   9127.4  13386.7      0.0    0.0   0.0  332.4 11813.3    0.0
      11   82284.7  19594.9  35415.5      0.0    0.0   0.0  906.1 24604.3    0.0
      12   35672.3   9150.3  13432.5      0.0    0.0   0.0  335.2 12022.2    0.0
      12   82284.7  19594.8  35415.5      0.0    0.0   0.0  905.2 24604.2    0.0
      13   35637.0   9192.6  13686.0      0.0    0.0   0.0  331.9 11716.9    0.0
      13   82284.7  19596.3  35415.4      0.0    0.0   0.0  905.5 24604.1    0.0
      14   35335.0   9144.2  13230.6      0.0    0.0   0.0  334.8 11915.3    0.0
      14   82284.7  19595.5  35415.4      0.0    0.0   0.0  905.3 24604.0    0.0
      15   35838.5   9134.2  13514.8      0.0    0.0   0.0  336.5 12140.1    0.0
      15   82284.7  19596.2  35415.4      0.0    0.0   0.0  905.2 24603.9    0.0
      16   36948.7   9173.3  13920.5      0.0    0.0   0.0  337.6 12750.3    0.0
      16   82284.7  19596.8  35415.4      0.0    0.0   0.0  903.8 24603.8    0.0
averaged   35920.7   9160.5  13575.8      0.0    0.0   0.0  337.7 12117.6    0.0
averaged   82284.7  19594.5  35415.9      0.0    0.0   0.0  907.0 24604.1    0.0

  FMO  timing statistics in pairs (CPU,wall) for each rank, sec

    Rank  FMOini FMOscf1  FMOdm1 FMOsyn1 FMOscf2  FMOes2 FMOsyn2 FMOscf3 FMOsyn3
 -------------------------------------------------------------------------------
       1    3.5   12509.8    0.5    0.0   22675.9     522.0    0.0    0.0    0.0
       1    9.0   26284.9    4.1    0.0   54872.1    1114.2    0.0    0.0    0.0
       2    2.6   12508.7    0.1    0.0   23035.3     550.0    0.0    0.0    0.0
       2    9.0   26284.9    4.1    0.0   54882.4    1103.9    0.0    0.0    0.0
       3    2.9   12571.1    0.2    0.0   22591.4     539.0    0.0    0.0    0.0
       3    9.0   26284.9    4.1    0.0   54888.8    1097.6    0.0    0.0    0.0
       4    2.6   12950.7    0.1    0.0   23211.2     543.4    0.0    0.0    0.0
       4    9.0   26284.9    4.1    0.0   54882.5    1103.8    0.0    0.0    0.0
       5    3.1   12529.7    0.3    0.0   22645.5     546.7    0.0    0.0    0.0
       5    9.0   26284.9    4.1    0.0   54885.6    1100.7    0.0    0.0    0.0
       6    2.7   12530.3    0.1    0.0   22464.5     507.7    0.0    0.0    0.0
       6    9.0   26284.9    4.1    0.0   54891.4    1094.9    0.0    0.0    0.0
       7    2.9   12569.7    0.2    0.0   23147.6     549.4    0.0    0.0    0.0
       7    9.0   26284.9    4.1    0.0   54887.1    1099.3    0.0    0.0    0.0
       8    2.5   13093.4    0.2    0.0   23393.0     546.5    0.0    0.0    0.0
       8    9.0   26284.9    4.1    0.0   54886.0    1100.3    0.0    0.0    0.0
       9    3.1   12432.4    0.4    0.0   22576.2     535.5    0.0    0.0    0.0
       9    9.0   26284.9    4.1    0.0   54883.5    1102.8    0.0    0.0    0.0
      10    2.5   12383.3    0.1    0.0   22711.8     521.4    0.0    0.0    0.0
      10    9.0   26284.9    4.1    0.0   54883.4    1102.9    0.0    0.0    0.0
      11    2.6   12346.8    0.2    0.0   22499.3     527.1    0.0    0.0    0.0
      11    9.0   26284.9    4.1    0.0   54887.3    1099.0    0.0    0.0    0.0
      12    2.3   12532.0    0.1    0.0   22597.0     540.9    0.0    0.0    0.0
      12    9.0   26284.9    4.1    0.0   54886.4    1100.0    0.0    0.0    0.0
      13    2.8   12455.6    0.3    0.0   22658.6     519.7    0.0    0.0    0.0
      13    9.0   26284.9    4.1    0.0   54889.5    1096.9    0.0    0.0    0.0
      14    2.3   12464.2    0.1    0.0   22347.1     521.2    0.0    0.0    0.0
      14    9.0   26284.9    4.1    0.0   54884.8    1101.5    0.0    0.0    0.0
      15    2.6   12657.2    0.2    0.0   22658.1     520.3    0.0    0.0    0.0
      15    9.0   26284.9    4.1    0.0   54886.6    1099.7    0.0    0.0    0.0
      16    2.4   12976.0    0.1    0.0   23394.5     575.6    0.0    0.0    0.0
      16    9.0   26284.9    4.1    0.0   54884.6    1101.7    0.0    0.0    0.0
averaged    2.7   12594.4    0.2    0.0   22787.9     535.4    0.0    0.0    0.0
averaged    9.0   26284.9    4.1    0.0   54885.1    1101.2    0.0    0.0    0.0
             62777876  WORDS OF DYNAMIC MEMORY USED
 EXECUTION OF GAMESS TERMINATED NORMALLY Sun Dec  8 07:09:17 2019
 DDI: 263640 bytes (0.3 MB / 0 MWords) used by master data server.

 ----------------------------------------
 CPU timing information for all processes
 ========================================
 0: 34893.350 + 818.410 = 35711.760
 1: 35328.653 + 768.255 = 36096.908
 2: 34925.507 + 779.185 = 35704.692
 3: 35941.322 + 766.776 = 36708.98
 4: 34914.154 + 811.175 = 35725.329
 5: 34751.828 + 753.519 = 35505.348
 6: 35481.82 + 788.703 = 36269.785
 7: 36250.834 + 784.703 = 37035.537
 8: 34746.676 + 800.966 = 35547.642
 9: 34856.906 + 762.195 = 35619.102
 10: 34609.820 + 766.277 = 35376.98
 11: 34932.00 + 740.369 = 35672.369
 12: 34848.209 + 788.797 = 35637.07
 13: 34604.928 + 730.108 = 35335.37
 14: 35069.156 + 769.338 = 35838.495
 15: 36179.357 + 769.381 = 36948.738
 ----------------------------------------
 ddikick.x: exited gracefully.
unset echo
----- accounting info -----
Files used on the master node gollum080.lsa.umich.edu were:
-rw-r--r-- 1 hazwong frank    25663 Dec  7 08:17 /scratch/hazwong/824950/28SR_1/usrc/28SR_1_fmo_input.F05
-rw-r--r-- 1 hazwong frank      634 Dec  8 07:09 /scratch/hazwong/824950/28SR_1/usrc/28SR_1_fmo_input.F06.001
-rw-r--r-- 1 hazwong frank      634 Dec  8 07:09 /scratch/hazwong/824950/28SR_1/usrc/28SR_1_fmo_input.F06.002
-rw-r--r-- 1 hazwong frank      634 Dec  8 07:09 /scratch/hazwong/824950/28SR_1/usrc/28SR_1_fmo_input.F06.003
-rw-r--r-- 1 hazwong frank      634 Dec  8 07:09 /scratch/hazwong/824950/28SR_1/usrc/28SR_1_fmo_input.F06.004
-rw-r--r-- 1 hazwong frank      634 Dec  8 07:09 /scratch/hazwong/824950/28SR_1/usrc/28SR_1_fmo_input.F06.005
-rw-r--r-- 1 hazwong frank      634 Dec  8 07:09 /scratch/hazwong/824950/28SR_1/usrc/28SR_1_fmo_input.F06.006
-rw-r--r-- 1 hazwong frank      634 Dec  8 07:09 /scratch/hazwong/824950/28SR_1/usrc/28SR_1_fmo_input.F06.007
-rw-r--r-- 1 hazwong frank      634 Dec  8 07:09 /scratch/hazwong/824950/28SR_1/usrc/28SR_1_fmo_input.F06.008
-rw-r--r-- 1 hazwong frank      634 Dec  8 07:09 /scratch/hazwong/824950/28SR_1/usrc/28SR_1_fmo_input.F06.009
-rw-r--r-- 1 hazwong frank      634 Dec  8 07:09 /scratch/hazwong/824950/28SR_1/usrc/28SR_1_fmo_input.F06.010
-rw-r--r-- 1 hazwong frank      634 Dec  8 07:09 /scratch/hazwong/824950/28SR_1/usrc/28SR_1_fmo_input.F06.011
-rw-r--r-- 1 hazwong frank      634 Dec  8 07:09 /scratch/hazwong/824950/28SR_1/usrc/28SR_1_fmo_input.F06.012
-rw-r--r-- 1 hazwong frank      634 Dec  8 07:09 /scratch/hazwong/824950/28SR_1/usrc/28SR_1_fmo_input.F06.013
-rw-r--r-- 1 hazwong frank      634 Dec  8 07:09 /scratch/hazwong/824950/28SR_1/usrc/28SR_1_fmo_input.F06.014
-rw-r--r-- 1 hazwong frank      634 Dec  8 07:09 /scratch/hazwong/824950/28SR_1/usrc/28SR_1_fmo_input.F06.015
-rw-r--r-- 1 hazwong frank    21906 Dec  8 07:09 /scratch/hazwong/824950/28SR_1/usrc/28SR_1_fmo_input.F07
-rw-r--r-- 1 hazwong frank        0 Dec  7 08:17 /scratch/hazwong/824950/28SR_1/usrc/28SR_1_fmo_input.F07.001
-rw-r--r-- 1 hazwong frank        0 Dec  7 08:17 /scratch/hazwong/824950/28SR_1/usrc/28SR_1_fmo_input.F07.002
-rw-r--r-- 1 hazwong frank        0 Dec  7 08:17 /scratch/hazwong/824950/28SR_1/usrc/28SR_1_fmo_input.F07.003
-rw-r--r-- 1 hazwong frank        0 Dec  7 08:17 /scratch/hazwong/824950/28SR_1/usrc/28SR_1_fmo_input.F07.004
-rw-r--r-- 1 hazwong frank        0 Dec  7 08:17 /scratch/hazwong/824950/28SR_1/usrc/28SR_1_fmo_input.F07.005
-rw-r--r-- 1 hazwong frank        0 Dec  7 08:17 /scratch/hazwong/824950/28SR_1/usrc/28SR_1_fmo_input.F07.006
-rw-r--r-- 1 hazwong frank        0 Dec  7 08:17 /scratch/hazwong/824950/28SR_1/usrc/28SR_1_fmo_input.F07.007
-rw-r--r-- 1 hazwong frank        0 Dec  7 08:17 /scratch/hazwong/824950/28SR_1/usrc/28SR_1_fmo_input.F07.008
-rw-r--r-- 1 hazwong frank        0 Dec  7 08:17 /scratch/hazwong/824950/28SR_1/usrc/28SR_1_fmo_input.F07.009
-rw-r--r-- 1 hazwong frank        0 Dec  7 08:17 /scratch/hazwong/824950/28SR_1/usrc/28SR_1_fmo_input.F07.010
-rw-r--r-- 1 hazwong frank        0 Dec  7 08:17 /scratch/hazwong/824950/28SR_1/usrc/28SR_1_fmo_input.F07.011
-rw-r--r-- 1 hazwong frank        0 Dec  7 08:17 /scratch/hazwong/824950/28SR_1/usrc/28SR_1_fmo_input.F07.012
-rw-r--r-- 1 hazwong frank        0 Dec  7 08:17 /scratch/hazwong/824950/28SR_1/usrc/28SR_1_fmo_input.F07.013
-rw-r--r-- 1 hazwong frank        0 Dec  7 08:17 /scratch/hazwong/824950/28SR_1/usrc/28SR_1_fmo_input.F07.014
-rw-r--r-- 1 hazwong frank        0 Dec  7 08:17 /scratch/hazwong/824950/28SR_1/usrc/28SR_1_fmo_input.F07.015
-rw-r--r-- 1 hazwong frank    65440 Dec  8 07:09 /scratch/hazwong/824950/28SR_1/usrc/28SR_1_fmo_input.F10.000
-rw-r--r-- 1 hazwong frank        0 Dec  7 08:17 /scratch/hazwong/824950/28SR_1/usrc/28SR_1_fmo_input.F26.000
-rw-r--r-- 1 hazwong frank        0 Dec  7 08:17 /scratch/hazwong/824950/28SR_1/usrc/28SR_1_fmo_input.F26.001
-rw-r--r-- 1 hazwong frank        0 Dec  7 08:17 /scratch/hazwong/824950/28SR_1/usrc/28SR_1_fmo_input.F26.002
-rw-r--r-- 1 hazwong frank        0 Dec  7 08:17 /scratch/hazwong/824950/28SR_1/usrc/28SR_1_fmo_input.F26.003
-rw-r--r-- 1 hazwong frank        0 Dec  7 08:17 /scratch/hazwong/824950/28SR_1/usrc/28SR_1_fmo_input.F26.004
-rw-r--r-- 1 hazwong frank        0 Dec  7 08:17 /scratch/hazwong/824950/28SR_1/usrc/28SR_1_fmo_input.F26.005
-rw-r--r-- 1 hazwong frank        0 Dec  7 08:17 /scratch/hazwong/824950/28SR_1/usrc/28SR_1_fmo_input.F26.006
-rw-r--r-- 1 hazwong frank        0 Dec  7 08:17 /scratch/hazwong/824950/28SR_1/usrc/28SR_1_fmo_input.F26.007
-rw-r--r-- 1 hazwong frank        0 Dec  7 08:17 /scratch/hazwong/824950/28SR_1/usrc/28SR_1_fmo_input.F26.008
-rw-r--r-- 1 hazwong frank        0 Dec  7 08:17 /scratch/hazwong/824950/28SR_1/usrc/28SR_1_fmo_input.F26.009
-rw-r--r-- 1 hazwong frank        0 Dec  7 08:17 /scratch/hazwong/824950/28SR_1/usrc/28SR_1_fmo_input.F26.010
-rw-r--r-- 1 hazwong frank        0 Dec  7 08:17 /scratch/hazwong/824950/28SR_1/usrc/28SR_1_fmo_input.F26.011
-rw-r--r-- 1 hazwong frank        0 Dec  7 08:17 /scratch/hazwong/824950/28SR_1/usrc/28SR_1_fmo_input.F26.012
-rw-r--r-- 1 hazwong frank        0 Dec  7 08:17 /scratch/hazwong/824950/28SR_1/usrc/28SR_1_fmo_input.F26.013
-rw-r--r-- 1 hazwong frank        0 Dec  7 08:17 /scratch/hazwong/824950/28SR_1/usrc/28SR_1_fmo_input.F26.014
-rw-r--r-- 1 hazwong frank        0 Dec  7 08:17 /scratch/hazwong/824950/28SR_1/usrc/28SR_1_fmo_input.F26.015
-rw-r--r-- 1 hazwong frank        0 Dec  7 08:17 /scratch/hazwong/824950/28SR_1/usrc/28SR_1_fmo_input.F27.000
-rw-r--r-- 1 hazwong frank        0 Dec  7 08:17 /scratch/hazwong/824950/28SR_1/usrc/28SR_1_fmo_input.F27.001
-rw-r--r-- 1 hazwong frank        0 Dec  7 08:17 /scratch/hazwong/824950/28SR_1/usrc/28SR_1_fmo_input.F27.002
-rw-r--r-- 1 hazwong frank        0 Dec  7 08:17 /scratch/hazwong/824950/28SR_1/usrc/28SR_1_fmo_input.F27.003
-rw-r--r-- 1 hazwong frank        0 Dec  7 08:17 /scratch/hazwong/824950/28SR_1/usrc/28SR_1_fmo_input.F27.004
-rw-r--r-- 1 hazwong frank        0 Dec  7 08:17 /scratch/hazwong/824950/28SR_1/usrc/28SR_1_fmo_input.F27.005
-rw-r--r-- 1 hazwong frank        0 Dec  7 08:17 /scratch/hazwong/824950/28SR_1/usrc/28SR_1_fmo_input.F27.006
-rw-r--r-- 1 hazwong frank        0 Dec  7 08:17 /scratch/hazwong/824950/28SR_1/usrc/28SR_1_fmo_input.F27.007
-rw-r--r-- 1 hazwong frank        0 Dec  7 08:17 /scratch/hazwong/824950/28SR_1/usrc/28SR_1_fmo_input.F27.008
-rw-r--r-- 1 hazwong frank        0 Dec  7 08:17 /scratch/hazwong/824950/28SR_1/usrc/28SR_1_fmo_input.F27.009
-rw-r--r-- 1 hazwong frank        0 Dec  7 08:17 /scratch/hazwong/824950/28SR_1/usrc/28SR_1_fmo_input.F27.010
-rw-r--r-- 1 hazwong frank        0 Dec  7 08:17 /scratch/hazwong/824950/28SR_1/usrc/28SR_1_fmo_input.F27.011
-rw-r--r-- 1 hazwong frank        0 Dec  7 08:17 /scratch/hazwong/824950/28SR_1/usrc/28SR_1_fmo_input.F27.012
-rw-r--r-- 1 hazwong frank        0 Dec  7 08:17 /scratch/hazwong/824950/28SR_1/usrc/28SR_1_fmo_input.F27.013
-rw-r--r-- 1 hazwong frank        0 Dec  7 08:17 /scratch/hazwong/824950/28SR_1/usrc/28SR_1_fmo_input.F27.014
-rw-r--r-- 1 hazwong frank        0 Dec  7 08:17 /scratch/hazwong/824950/28SR_1/usrc/28SR_1_fmo_input.F27.015
-rw-r--r-- 1 hazwong frank 33538048 Dec  7 15:36 /scratch/hazwong/824950/28SR_1/usrc/28SR_1_fmo_input.F40.000
-rw-r--r-- 1 hazwong frank 33538048 Dec  7 15:36 /scratch/hazwong/824950/28SR_1/usrc/28SR_1_fmo_input.F40.001
-rw-r--r-- 1 hazwong frank 33538048 Dec  7 15:36 /scratch/hazwong/824950/28SR_1/usrc/28SR_1_fmo_input.F40.002
-rw-r--r-- 1 hazwong frank 33538048 Dec  7 15:36 /scratch/hazwong/824950/28SR_1/usrc/28SR_1_fmo_input.F40.003
-rw-r--r-- 1 hazwong frank 33538048 Dec  7 15:36 /scratch/hazwong/824950/28SR_1/usrc/28SR_1_fmo_input.F40.004
-rw-r--r-- 1 hazwong frank 33538048 Dec  7 15:36 /scratch/hazwong/824950/28SR_1/usrc/28SR_1_fmo_input.F40.005
-rw-r--r-- 1 hazwong frank 33538048 Dec  7 15:36 /scratch/hazwong/824950/28SR_1/usrc/28SR_1_fmo_input.F40.006
-rw-r--r-- 1 hazwong frank 33538048 Dec  7 15:36 /scratch/hazwong/824950/28SR_1/usrc/28SR_1_fmo_input.F40.007
-rw-r--r-- 1 hazwong frank 33538048 Dec  7 15:36 /scratch/hazwong/824950/28SR_1/usrc/28SR_1_fmo_input.F40.008
-rw-r--r-- 1 hazwong frank 33538048 Dec  7 15:36 /scratch/hazwong/824950/28SR_1/usrc/28SR_1_fmo_input.F40.009
-rw-r--r-- 1 hazwong frank 33538048 Dec  7 15:36 /scratch/hazwong/824950/28SR_1/usrc/28SR_1_fmo_input.F40.010
-rw-r--r-- 1 hazwong frank 33538048 Dec  7 15:36 /scratch/hazwong/824950/28SR_1/usrc/28SR_1_fmo_input.F40.011
-rw-r--r-- 1 hazwong frank 33538048 Dec  7 15:36 /scratch/hazwong/824950/28SR_1/usrc/28SR_1_fmo_input.F40.012
-rw-r--r-- 1 hazwong frank 33538048 Dec  7 15:36 /scratch/hazwong/824950/28SR_1/usrc/28SR_1_fmo_input.F40.013
-rw-r--r-- 1 hazwong frank 33538048 Dec  7 15:36 /scratch/hazwong/824950/28SR_1/usrc/28SR_1_fmo_input.F40.014
-rw-r--r-- 1 hazwong frank 33538048 Dec  7 15:36 /scratch/hazwong/824950/28SR_1/usrc/28SR_1_fmo_input.F40.015
ls: No match.
ls: No match.
ls: No match.
Sun Dec  8 07:09:20 EST 2019
0.190u 0.117s 22:51:28.57 0.0%	0+0k 1752+176io 29pf+0w
