‘28SR_3_fmo_input.inp’ -> ‘/scratch/hazwong/824956/./28SR_3_fmo_input.inp’
‘rungms’ -> ‘/scratch/hazwong/824956/./rungms’
‘gms-files.csh’ -> ‘/scratch/hazwong/824956/./gms-files.csh’
----- GAMESS execution script 'rungms' -----
This job is running on host gollum080.lsa.umich.edu
under operating system Linux at Sat Dec 7 08:22:51 EST 2019
Available scratch disk space (Kbyte units) at beginning of the job is
Filesystem     1K-blocks   Used Available Use% Mounted on
/dev/sda4      426933580 838616 426094964   1% /scratch
GAMESS temporary binary files will be written to /scratch/hazwong/824956/28SR_3/usrc
GAMESS supplementary output files will be written to /scratch/hazwong/824956/28SR_3/src
Copying input file 28SR_3_fmo_input.inp to your run's scratch directory...
cp 28SR_3_fmo_input.inp /scratch/hazwong/824956/28SR_3/usrc/28SR_3_fmo_input.F05
unset echo
This is a GDDI run, keeping various output files on local disks
setenv OUTPUT /scratch/hazwong/824956/28SR_3/usrc/28SR_3_fmo_input.F06
setenv PUNCH /scratch/hazwong/824956/28SR_3/usrc/28SR_3_fmo_input.F07
unset echo
 
Assuming a single but multicore node.
 
/export/apps/CentOS7/gamess/src/build//ddikick.x /export/apps/CentOS7/gamess/src/build//gamess.R3.x 28SR_3_fmo_input -ddi 1 16 gollum080.lsa.umich.edu:cpus=16 -scr /scratch/hazwong/824956/28SR_3/usrc

 Distributed Data Interface kickoff program.
 Initiating 16 compute processes on 1 nodes to run the following command:
 /export/apps/CentOS7/gamess/src/build//gamess.R3.x 28SR_3_fmo_input 

          ******************************************************
          *         GAMESS VERSION = 30 SEP 2018 (R3)         *
          *             FROM IOWA STATE UNIVERSITY             *
          * M.W.SCHMIDT, K.K.BALDRIDGE, J.A.BOATZ, S.T.ELBERT, *
          *   M.S.GORDON, J.H.JENSEN, S.KOSEKI, N.MATSUNAGA,   *
          *          K.A.NGUYEN, S.J.SU, T.L.WINDUS,           *
          *       TOGETHER WITH M.DUPUIS, J.A.MONTGOMERY       *
          *         J.COMPUT.CHEM.  14, 1347-1363(1993)        *
          **************** 64 BIT LINUX VERSION ****************

  SINCE 1993, STUDENTS AND POSTDOCS WORKING AT IOWA STATE UNIVERSITY
  AND ALSO IN THEIR VARIOUS JOBS AFTER LEAVING ISU HAVE MADE IMPORTANT
  CONTRIBUTIONS TO THE CODE:
     IVANA ADAMOVIC, CHRISTINE AIKENS, YURI ALEXEEV, POOJA ARORA,
     ANDREY ASADCHEV, ROB BELL, PRADIPTA BANDYOPADHYAY, JONATHAN BENTZ,
     BRETT BODE, KURT BRORSEN, CALEB CARLIN, GALINA CHABAN, WEI CHEN,
     CHEOL HO CHOI, PAUL DAY, ALBERT DEFUSCO, NUWAN DESILVA, TIM DUDLEY,
     DMITRI FEDOROV, ALEX FINDLATER, GRAHAM FLETCHER, MARK FREITAG,
     KURT GLAESEMANN, ANASTASIA GUNINA,
     DAN KEMP, GRANT MERRILL, NORIYUKI MINEZAWA, JONATHAN MULLIN,
     TAKESHI NAGATA, SEAN NEDD, HEATHER NETZLOFF, BOSILJKA NJEGIC, RYAN OLSON,
     MIKE PAK, BUU PHAM,
     SPENCER PRUITT, LUKE ROSKOP, JIM SHOEMAKER, LYUDMILA SLIPCHENKO,
     TONY SMITH, SAROM SOK LEANG, JIE SONG, TETSUYA TAKETSUGU, SIMON WEBB,
     PENG XU, SOOHAENG YOO, FEDERICO ZAHARIEV

  ADDITIONAL CODE HAS BEEN PROVIDED BY COLLABORATORS IN OTHER GROUPS:
     IOWA STATE UNIVERSITY:
          JOE IVANIC, AARON WEST, LAIMUTIS BYTAUTAS, KLAUS RUEDENBERG
     UNIVERSITY OF TOKYO: KIMIHIKO HIRAO, TAKAHITO NAKAJIMA,
          TAKAO TSUNEDA, MUNEAKI KAMIYA, SUSUMU YANAGISAWA,
          KIYOSHI YAGI, MAHITO CHIBA, SEIKEN TOKURA, NAOAKI KAWAKAMI
     UNIVERSITY OF AARHUS: FRANK JENSEN
     UNIVERSITY OF IOWA: VISVALDAS KAIRYS, HUI LI
     NATIONAL INST. OF STANDARDS AND TECHNOLOGY: WALT STEVENS, DAVID GARMER
     UNIVERSITY OF PISA: BENEDETTA MENNUCCI, JACOPO TOMASI
     UNIVERSITY OF MEMPHIS: HENRY KURTZ, PRAKASHAN KORAMBATH
     UNIVERSITY OF ALBERTA: TOBY ZENG, MARIUSZ KLOBUKOWSKI
     UNIVERSITY OF NEW ENGLAND: MARK SPACKMAN
     MIE UNIVERSITY: HIROAKI UMEDA
     NAT. INST. OF ADVANCED INDUSTRIAL SCIENCE AND TECHNOLOGY: KAZUO KITAURA
     MICHIGAN STATE UNIVERSITY:
          KAROL KOWALSKI, MARTA WLOCH, JEFFREY GOUR, JESSE LUTZ,
          WEI LI, JUN SHEN, J. EMILIANO DEUSTUA, PIOTR PIECUCH
     UNIVERSITY OF MINNESOTA:
          YINAN SHU
     UNIVERSITY OF SILESIA: MONIKA MUSIAL, STANISLAW KUCHARSKI
     FACULTES UNIVERSITAIRES NOTRE-DAME DE LA PAIX:
          OLIVIER QUINET, BENOIT CHAMPAGNE
     UNIVERSITY OF CALIFORNIA - SANTA BARBARA: BERNARD KIRTMAN
     INSTITUTE FOR MOLECULAR SCIENCE:
          KAZUYA ISHIMURA, MICHIO KATOUDA, AND SHIGERU NAGASE
     UNIVERSITY OF NOTRE DAME: ANNA POMOGAEVA, DAN CHIPMAN
     KYUSHU UNIVERSITY:
          HARUYUKI NAKANO,
          FENG LONG GU, JACEK KORCHOWIEC, MARCIN MAKOWSKI, AND YURIKO AOKI,
          HIROTOSHI MORI AND EISAKU MIYOSHI
     PENNSYLVANIA STATE UNIVERSITY:
          TZVETELIN IORDANOV, CHET SWALINA, JONATHAN SKONE,
          SHARON HAMMES-SCHIFFER
     WASEDA UNIVERSITY:
          MASATO KOBAYASHI, TOMOKO AKAMA, TSUGUKI TOUMA,
          TAKESHI YOSHIKAWA, YASUHIRO IKABATA, JUNJI SEINO,
          YUYA NAKAJIMA, HIROMI NAKAI
     NANJING UNIVERSITY: SHUHUA LI
     UNIVERSITY OF NEBRASKA:
          PEIFENG SU, DEJUN SI, NANDUN THELLAMUREGE, YALI WANG, HUI LI
     UNIVERSITY OF ZURICH: ROBERTO PEVERATI, KIM BALDRIDGE
     N. COPERNICUS UNIVERSITY AND JACKSON STATE UNIVERSITY:
          MARIA BARYSZ
     UNIVERSITY OF COPENHAGEN: Jimmy Kromann, CASPER STEINMANN
     TOKYO INSTITUTE OF TECHNOLOGY: HIROYA NAKATA
     NAGOYA UNIVERSITY: YOSHIO NISHIMOTO, STEPHAN IRLE
     MOSCOW STATE UNIVERSITY: VLADIMIR MIRONOV


 PARALLEL VERSION RUNNING ON       16 PROCESSORS IN        1 NODES.

 EXECUTION OF GAMESS BEGUN Sat Dec  7 08:22:52 2019

            ECHO OF THE FIRST FEW INPUT CARDS -
 INPUT CARD>!*** FMO 5.3 (Gamess) INPUT generated by Facio 22.1.1.32 ***                    
 INPUT CARD> $CONTRL RUNTYP=ENERGY NPRINT=-5 ISPHER=1 MAXIT=200 $END                        
 INPUT CARD> $SYSTEM MWORDS=63 MEMDDI=63 $END                                               
 INPUT CARD> $GDDI NGROUP=1 $END                                                            
 INPUT CARD> $SCF DIRSCF=.TRUE. NPUNCH=0 $END                                               
 INPUT CARD>!*** NumCPU : 2  MemPerNode : 512MB                                             
 INPUT CARD> $PCM SOLVNT=WATER IEF=-10 ICOMP=2 ICAV=1 IDISP=1 IFMO=-1 $END                  
 INPUT CARD> $PCMCAV RADII=SUAHF $END                                                       
 INPUT CARD> $TESCAV NTSALL=60 $END                                                         
 INPUT CARD> $FMOPRP                                                                        
 INPUT CARD>    NAODIR=200                                                                  
 INPUT CARD>    NGRFMO(1)=1, 1, 0, 0, 0,   0, 0, 0, 0, 0                                    
 INPUT CARD>    IPIEDA=1                                                                    
 INPUT CARD>    NPRINT=9                                                                    
 INPUT CARD> $END                                                                           
 INPUT CARD> $FMO                                                                           
 INPUT CARD>      SCFTYP(1)=RHF                                                             
 INPUT CARD>      MODGRD=10                                                                 
 INPUT CARD>      MODMUL=0                                                                  
 INPUT CARD>      MAXCAO=5                                                                  
 INPUT CARD>      MAXBND=18                                                                 
 INPUT CARD>      NLAYER=1                                                                  
 INPUT CARD>      MPLEVL(1)=2                                                               
 INPUT CARD>      NFRAG=16                                                                  
 INPUT CARD>      ICHARG(1)=-1, -1, -1, -1, -1, -1, -1, 0, -1, -1, -1, -1, -1, -1,          
 INPUT CARD>-1, 0                                                                           
 INPUT CARD>      FRGNAM(1)=F1, F2, F3, F4, F5, F6, F7, F8, F9, F10, F11, F12, F13,         
 INPUT CARD>F14, F15, F16                                                                   
 INPUT CARD>      indat(1)=0                                                                
 INPUT CARD>               1   -36   0                                                      
 INPUT CARD>               37   -66   0                                                     
 INPUT CARD>               67   -97   0                                                     
 INPUT CARD>               98   -130   0                                                    
 INPUT CARD>               131   -164   0                                                   
 INPUT CARD>               165   -198   0                                                   
 INPUT CARD>               199   -228   0                                                   
 INPUT CARD>               229   -258   0                                                   
 INPUT CARD>               259   -292   0                                                   
 INPUT CARD>               293   -325   0                                                   
 INPUT CARD>               326   -358   0                                                   
 INPUT CARD>               359   -392   0                                                   
 INPUT CARD>               393   -423   0                                                   
 INPUT CARD>               424   -456   0                                                   
 INPUT CARD>               457   -490   0                                                   
 INPUT CARD>               491   -518   0                                                   
 INPUT CARD> $END                                                                           
 INPUT CARD>                                                                                
 INPUT CARD> $FMOBND                                                                        
 INPUT CARD>   -37   36       6-31G*    MINI                                                
 INPUT CARD>   -67   66       6-31G*    MINI                                                


 -------------------------------------------------------------
 GROUP DDI, PROGRAMMED BY: RYAN M. OLSON AND DMITRI G. FEDOROV
        FEDOROV ET AL., J. COMPUT. CHEM., 25 (2004) 872.
 -------------------------------------------------------------

 -------------------------------------------------------
 GDDI: INITIALIZATION COMPLETED FOR GROUP     1 OF     1
 WITH    16 PROCESSES BALTYP=DLB   global rank=        0
 -------------------------------------------------------

   63000000 WORDS OF MEMORY AVAILABLE


     RUN TITLE
     ---------
  FMO calculation                                                                

 THE POINT GROUP OF THE MOLECULE IS C1      
 THE ORDER OF THE PRINCIPAL AXIS IS     0

 ATOM   ATOMIC CHARGE
 H.1-1       1.0
 O.1-1       8.0
 C.1-1       6.0
 N.1-1       7.0
 P.1-1      15.0

     ATOMIC BASIS SET LIBRARY
     ----------------
 THE CONTRACTED PRIMITIVE FUNCTIONS HAVE BEEN UNNORMALIZED
 THE CONTRACTED BASIS FUNCTIONS ARE NOW NORMALIZED TO UNITY

  SHELL TYPE  PRIMITIVE        EXPONENT          CONTRACTION COEFFICIENT(S)

 H.1-1     

      1   S       1            18.7311370    0.033494604338
      1   S       2             2.8253944    0.234726953484
      1   S       3             0.6401217    0.813757326146

      2   S       4             0.1612778    1.000000000000

 O.1-1     

      3   S       5          5484.6716600    0.001831074430
      3   S       6           825.2349460    0.013950172200
      3   S       7           188.0469580    0.068445078098
      3   S       8            52.9645000    0.232714335992
      3   S       9            16.8975704    0.470192897984
      3   S      10             5.7996353    0.358520852987

      4   L      11            15.5396162   -0.110777549525    0.070874268231
      4   L      12             3.5999336   -0.148026262701    0.339752839147
      4   L      13             1.0137618    1.130767015354    0.727158577316

      5   L      14             0.2700058    1.000000000000    1.000000000000

      6   D      15             0.8000000    1.000000000000

 C.1-1     

      7   S      16          3047.5248800    0.001834737132
      7   S      17           457.3695180    0.014037322813
      7   S      18           103.9486850    0.068842622264
      7   S      19            29.2101553    0.232184443216
      7   S      20             9.2866630    0.467941348435
      7   S      21             3.1639270    0.362311985337

      8   L      22             7.8682723   -0.119332419775    0.068999066591
      8   L      23             1.8812885   -0.160854151696    0.316423960957
      8   L      24             0.5442493    1.143456437840    0.744308290898

      9   L      25             0.1687145    1.000000000000    1.000000000000

     10   D      26             0.8000000    1.000000000000

 N.1-1     

     11   S      27          4173.5114600    0.001834772160
     11   S      28           627.4579110    0.013994627002
     11   S      29           142.9020930    0.068586551812
     11   S      30            40.2343293    0.232240873040
     11   S      31            12.8202129    0.469069948082
     11   S      32             4.3904370    0.360455199063

     12   L      33            11.6263619   -0.114961181702    0.067579743878
     12   L      34             2.7162798   -0.169117478561    0.323907295893
     12   L      35             0.7722184    1.145851947027    0.740895139755

     13   L      36             0.2120315    1.000000000000    1.000000000000

     14   D      37             0.8000000    1.000000000000

 P.1-1     

     15   S      38         19413.3000000    0.001851598923
     15   S      39          2909.4200000    0.014206191735
     15   S      40           661.3640000    0.069999459277
     15   S      41           185.7590000    0.240078860331
     15   S      42            59.1943000    0.484761717984
     15   S      43            20.0310000    0.335199804993

     16   L      44           339.4780000   -0.002782170105    0.004564616191
     16   L      45            81.0101000   -0.036049901354    0.033693571881
     16   L      46            25.8780000   -0.116631004382    0.139754883368
     16   L      47             9.4522100    0.096832803638    0.339361716786
     16   L      48             3.6656600    0.614418023082    0.450920623685
     16   L      49             1.4674600    0.403798015170    0.238585800889

     17   L      50             2.1562300   -0.252924113863   -0.017765312733
     17   L      51             0.7489970    0.032851844678    0.274058196433
     17   L      52             0.2831450    1.081254761783    0.785421562957

     18   L      53             0.0998317    1.000000000000    1.000000000000

     19   D      54             0.5500000    1.000000000000

 TOTAL NUMBER OF BASIS SET SHELLS             =   19
 NUMBER OF CARTESIAN GAUSSIAN BASIS FUNCTIONS =   66

     $CONTRL OPTIONS
     ---------------
 SCFTYP=RHF          RUNTYP=ENERGY       EXETYP=RUN     
 MPLEVL=       0     CITYP =NONE         CCTYP =NONE         VBTYP =NONE    
 DFTTYP=NONE         TDDFT =NONE    
 MULT  =       1     ICHARG=       0     NZVAR =       0     COORD =UNIQUE  
 PP    =NONE         RELWFN=NONE         LOCAL =NONE         NUMGRD=       F
 ISPHER=       1     NOSYM =       0     MAXIT =     200     UNITS =ANGS    
 PLTORB=       F     MOLPLT=       F     AIMPAC=       F     FRIEND=        
 NPRINT=      -5     IREST =       0     GEOM  =INPUT   
 NORMF =       0     NORMP =       0     ITOL  =      24     ICUT  =      12
 INTTYP=BEST         GRDTYP=BEST         QMTTOL= 1.0E-06

     $SYSTEM OPTIONS
     ---------------
  REPLICATED MEMORY=    63000000 WORDS (ON EVERY NODE).
 DISTRIBUTED MEMDDI=          63 MILLION WORDS IN AGGREGATE,
 MEMDDI DISTRIBUTED OVER  16 PROCESSORS IS     3937500 WORDS/PROCESSOR.
 TOTAL MEMORY REQUESTED ON EACH PROCESSOR=    66937500 WORDS.
 TIMLIM=      525600.00 MINUTES, OR     365.0 DAYS.
 PARALL= T  BALTYP=  DLB     KDIAG=    0  COREFL= F
 MXSEQ2=     300 MXSEQ3=     150  mem10=         0

 ** LOOKING UP INTERNALLY STORED DATA FOR SOLVENT=WATER    **
 OPTICAL AND PHYSICAL CONSTANTS:
 EPS= 78.390; EPSINF=  1.776; RSOLV=  1.385 A; VMOL=  18.070 ML/MOL;
 TCE= .25700E-03 1/K; STEN= 71.810 DYN/CM;  DSTEN=  0.6500; CMF=  1.2770


     -----------------------------------
     INPUT FOR PCM SOLVATION CALCULATION 
     -----------------------------------
     IEF   =     -10
     ICOMP =       2     IFIELD=       0     ICAV  =       1
     IDISP =       1     IREP  =       0     IDP   =       0

     SOLVNT=WATER        EPS   = 78.3900     EPSINF=  1.7760
     VMOL  = 18.0700     TCE   =  0.00025700 STEN  = 71.8100
     DSTEN =  0.6500     CMF   =  1.2770     RSOLV =  1.3850

     NESFP =       0
     OMEGA = 40.0000     RET   =100.0000     FRO   =  0.7000

     TABS  =298.0000     IPRINT=       0

     --------------------------------
     INPUT FOR ITERATIVE C-PCM METHOD 
     --------------------------------
     IPCMIT  =         1     MXDIIS  =        50
     MXITR1  =       200     MXITR2  =       200
     THRES   = 0.100E-09     IMUL    =         3
     RCUT(1) =   20.0000     RCUT(2) =   50.0000

     IDIRCT  =         1
     IMGABI  =         0     RABI    =    4.0000
     IMGASC  =         0     RASC    =   20.0000
     THRSLS  = 0.500E-03     DENSLS  =    0.0100
     IEFPOL  =         1     REFPOL  =    0.0000

     INPUT FOR ISOTROPIC DIELECTRICS
     -------------------------------
     EPS=    78.39

          ----------------
          PROPERTIES INPUT
          ----------------

     MOMENTS            FIELD           POTENTIAL          DENSITY
 IEMOM =       1   IEFLD =       0   IEPOT =       0   IEDEN =       0
 WHERE =COMASS     WHERE =NUCLEI     WHERE =NUCLEI     WHERE =NUCLEI  
 OUTPUT=BOTH       OUTPUT=BOTH       OUTPUT=NONE       OUTPUT=BOTH    
 IEMINT=       0   IEFINT=       0                     IEDINT=       0
                                                       MORB  =       0
          EXTRAPOLATION IN EFFECT
          SOSCF IN EFFECT
 ORBITAL PRINTING OPTION: NPREO=     1 32767     2     1

     -------------------------------
     INTEGRAL TRANSFORMATION OPTIONS
     -------------------------------
     NWORD  =            0
     CUTOFF = 1.0E-10     MPTRAN =       0
     DIRTRF =       T     AOINTS =DUP     

          ----------------------
          INTEGRAL INPUT OPTIONS
          ----------------------
 NOPK  =       1 NORDER=       0 SCHWRZ=       T

 ..... DONE SETTING UP THE RUN .....
 CPU     0: STEP CPU TIME=     0.04 TOTAL CPU TIME=          0.0 (      0.0 MIN)
 TOTAL WALL CLOCK TIME=          0.1 SECONDS, CPU UTILIZATION IS    57.14%
 CPU     0: STEP CPU TIME=     0.00 TOTAL CPU TIME=          0.0 (      0.0 MIN)
 TOTAL WALL CLOCK TIME=          0.1 SECONDS, CPU UTILIZATION IS    57.14%

                    ----------------------
                    AO INTEGRAL TECHNOLOGY
                    ----------------------
     S,P,L SHELL ROTATED AXIS INTEGRALS, REPROGRAMMED BY
        KAZUYA ISHIMURA (IMS) AND JOSE SIERRA (SYNSTAR).
     S,P,D,L SHELL ROTATED AXIS INTEGRALS PROGRAMMED BY
        KAZUYA ISHIMURA (INSTITUTE FOR MOLECULAR SCIENCE).
     S,P,D,F,G SHELL TO TOTAL QUARTET ANGULAR MOMENTUM SUM 5,
        ERIC PROGRAM BY GRAHAM FLETCHER (ELORET AND NASA ADVANCED
        SUPERCOMPUTING DIVISION, AMES RESEARCH CENTER).
     S,P,D,F,G,L SHELL GENERAL RYS QUADRATURE PROGRAMMED BY
        MICHEL DUPUIS (PACIFIC NORTHWEST NATIONAL LABORATORY).
 Setting modorb=1 flag...
 Setting modorb=1 flag...

          -----------------------
          MP2 CONTROL INFORMATION
          -----------------------
          NACORE =        8  NBCORE =        8
          LMOMP2 =        F  AOINTS = DUP     
          METHOD =        2  NWORD  =               0
          MP2PRP =        F  OSPT   = NONE    
          CUTOFF = 1.00E-12  CPHFBS = BASISAO 
          CODE   = IMS     

          NUMBER OF CORE -A-  ORBITALS =     8
          NUMBER OF CORE -B-  ORBITALS =     8
          NUMBER OF OCC. -A-  ORBITALS =    18
          NUMBER OF OCC. -B-  ORBITALS =    18
          NUMBER OF MOLECULAR ORBITALS =    66
          NUMBER OF   BASIS  FUNCTIONS =    66

 CPU     0: STEP CPU TIME=     0.04 TOTAL CPU TIME=          0.1 (      0.0 MIN)
 TOTAL WALL CLOCK TIME=          0.1 SECONDS, CPU UTILIZATION IS    80.00%
 CPU     0: STEP CPU TIME=     0.00 TOTAL CPU TIME=          0.1 (      0.0 MIN)
 TOTAL WALL CLOCK TIME=          0.1 SECONDS, CPU UTILIZATION IS    80.00%

     INPUT FOR CAVITY DEFINITION 
     ---------------------------
   ATOM               COORDINATES                RADIUS       EPS
      1      3.4820    -54.5980     39.4630      0.0100     78.3900
      2      4.2000    -54.7570     38.8180      1.5900     78.3900
      3      5.2250    -55.4760     39.5200      1.7700     78.3900
      4      4.7820    -56.3850     39.9890      0.0100     78.3900
      5      5.6330    -54.8330     40.3320      0.0100     78.3900
      6      6.3780    -55.9060     38.6100      1.7700     78.3900
      7      7.1680    -56.4250     39.1960      0.0100     78.3900
      8      5.8870    -56.8520     37.6160      1.5900     78.3900
      9      6.5510    -56.6210     36.3860      1.7700     78.3900
     10      7.0180    -57.5860     36.0830      0.0100     78.3900
     11      5.6130    -56.1980     35.3370      1.6800     78.3900
     12      5.8470    -56.2130     33.9870      1.7700     78.3900
     13      7.9410    -56.8640     31.3100      1.6800     78.3900
     14      8.7870    -57.1510     31.7540      0.0100     78.3900
     15      7.9100    -56.8230     30.3080      0.0100     78.3900
     16      6.9850    -56.6030     33.3860      1.6800     78.3900
     17      6.9090    -56.5340     32.0620      1.7700     78.3900
     18      5.7800    -56.1310     31.3950      1.6800     78.3900
     19      5.7990    -56.1230     30.3880      0.0100     78.3900
     20      4.5890    -55.7300     31.9870      1.7700     78.3900
     21      3.6220    -55.3780     31.3060      1.5900     78.3900
     22      4.6730    -55.7770     33.4040      1.7700     78.3900
     23      3.7220    -55.4730     34.3710      1.6800     78.3900
     24      4.3250    -55.7370     35.5070      1.7700     78.3900
     25      3.8840    -55.6270     36.5030      0.0100     78.3900
     26      7.6320    -55.5970     36.6420      1.7700     78.3900
     27      7.8350    -54.9640     35.7550      0.0100     78.3900
     28      8.8180    -56.2540     37.0430      1.5900     78.3900
     29      9.4320    -55.5680     37.3290      0.0100     78.3900
     30      7.0390    -54.7880     37.7870      1.7700     78.3900
     31      6.2210    -54.1230     37.4210      0.0100     78.3900
     32      8.0130    -54.0910     38.5940      1.5900     78.3900
     33      8.4240    -52.6110     38.2420      2.1000     78.3900
     34      7.2030    -51.7910     38.1040      1.5900     78.3900
     35      9.4250    -52.1500     39.2260      1.5900     78.3900
     36      9.1010    -52.6970     36.8310      1.5900     78.3900
     37     10.4000    -53.2750     36.5980      1.7700     78.3900
     38     10.4620    -54.3130     36.9900      0.0100     78.3900
     39     11.1920    -52.6810     37.1150      0.0100     78.3900
     40     10.7250    -53.3190     35.0940      1.7700     78.3900
     41     11.7290    -53.7710     34.9290      0.0100     78.3900
     42      9.7570    -54.1470     34.3690      1.5900     78.3900
     43      9.4550    -53.5360     33.1170      1.7700     78.3900
     44      9.6800    -54.3100     32.3460      0.0100     78.3900
     45      8.0220    -53.1250     33.0000      1.6800     78.3900
     46      7.2670    -52.9070     34.1270      1.7700     78.3900
     47      7.7840    -53.0670     35.0690      0.0100     78.3900
     48      7.4730    -52.9500     31.7450      1.7700     78.3900
     49      8.1120    -53.1070     30.7090      1.5900     78.3900
     50      6.1460    -52.5920     31.7390      1.6800     78.3900
     51      5.7020    -52.4760     30.8360      0.0100     78.3900
     52      5.3240    -52.4010     32.8290      1.7700     78.3900
     53      4.1390    -52.1300     32.6690      1.5900     78.3900
     54      5.9730    -52.5630     34.0920      1.7700     78.3900
     55      5.3860    -52.4420     34.9990      0.0100     78.3900
     56     10.4160    -52.3760     32.9460      1.7700     78.3900
     57      9.9460    -51.5440     32.3980      0.0100     78.3900
     58     11.5880    -52.8030     32.2770      1.5900     78.3900
     59     12.2050    -52.0540     32.2920      0.0100     78.3900
     60     10.7010    -51.9630     34.3870      1.7700     78.3900
     61      9.8350    -51.4020     34.8040      0.0100     78.3900
     62     11.9600    -51.2830     34.5980      1.5900     78.3900
     63     12.0680    -49.7330     34.3290      2.1000     78.3900
     64     10.8480    -49.0760     34.8400      1.5900     78.3900
     65     13.3640    -49.2690     34.8720      1.5900     78.3900
     66     12.1100    -49.6020     32.7620      1.5900     78.3900
     67     11.6660    -48.3860     32.1070      1.7700     78.3900
     68     12.5440    -47.7310     31.9060      0.0100     78.3900
     69     10.9510    -47.7980     32.7330      0.0100     78.3900
     70     10.9480    -48.6950     30.7810      1.7700     78.3900
     71     11.6590    -49.0840     30.0240      0.0100     78.3900
     72      9.9530    -49.7280     31.0120      1.5900     78.3900
     73      8.7440    -49.4130     30.3690      1.7700     78.3900
     74      8.4880    -50.3220     29.7780      0.0100     78.3900
     75      7.6230    -49.1530     31.3260      1.6800     78.3900
     76      7.8630    -48.9710     32.6750      1.7700     78.3900
     77      8.9100    -48.9960     32.9930      0.0100     78.3900
     78      6.8550    -48.7750     33.5400      1.7700     78.3900
     79      7.0250    -48.6240     34.6060      0.0100     78.3900
     80      6.3100    -49.1610     30.8590      1.7700     78.3900
     81      6.1060    -49.3440     29.6510      1.5900     78.3900
     82      5.2950    -48.9600     31.7170      1.6800     78.3900
     83      5.5260    -48.7720     33.0200      1.7700     78.3900
     84      4.4800    -48.5930     33.8220      1.6800     78.3900
     85      3.5680    -48.5850     33.3860      0.0100     78.3900
     86      4.5700    -48.4070     34.7970      0.0100     78.3900
     87      9.0370    -48.2620     29.4240      1.7700     78.3900
     88      8.1680    -47.5890     29.2740      0.0100     78.3900
     89      9.4860    -48.7600     28.1700      1.5900     78.3900
     90      8.9650    -49.5310     27.9160      0.0100     78.3900
     91     10.1510    -47.5310     30.1720      1.7700     78.3900
     92      9.7180    -46.9730     31.0390      0.0100     78.3900
     93     11.0050    -46.7270     29.3140      1.5900     78.3900
     94     10.8010    -45.1710     29.3450      2.1000     78.3900
     95      9.3970    -44.8760     29.6870      1.5900     78.3900
     96     11.8360    -44.6090     30.2410      1.5900     78.3900
     97     11.0540    -44.6460     27.8810      1.5900     78.3900
     98     12.2740    -44.8980     27.1570      1.7700     78.3900
     99     12.7070    -45.8940     27.4080      0.0100     78.3900
    100     13.0320    -44.1240     27.4180      0.0100     78.3900
    101     12.0320    -44.8570     25.6400      1.7700     78.3900
    102     12.9570    -45.1120     25.0770      0.0100     78.3900
    103     11.0260    -45.8520     25.2800      1.5900     78.3900
    104     10.1870    -45.3250     24.2720      1.7700     78.3900
    105     10.2410    -46.0400     23.4190      0.0100     78.3900
    106      8.7970    -45.2290     24.7300      1.6800     78.3900
    107      6.6000    -45.2130     24.7570      1.7700     78.3900
    108      7.0040    -45.0710     26.0800      1.6800     78.3900
    109      8.3150    -45.0910     26.0130      1.7700     78.3900
    110      8.9840    -45.0060     26.8700      0.0100     78.3900
    111      5.2830    -45.3990     22.7910      1.6800     78.3900
    112      6.4310    -45.4650     22.1140      1.7700     78.3900
    113      6.3370    -45.5620     21.0250      0.0100     78.3900
    114      7.6830    -45.4430     22.5830      1.6800     78.3900
    115      7.6950    -45.3000     23.9200      1.7700     78.3900
    116      5.3310    -45.2890     24.1430      1.7700     78.3900
    117      4.1650    -45.2770     24.8000      1.6800     78.3900
    118      4.1120    -45.1450     25.7990      0.0100     78.3900
    119      3.3250    -45.1300     24.2810      0.0100     78.3900
    120     10.7540    -43.9890     23.8380      1.7700     78.3900
    121      9.9620    -43.2640     23.5500      0.0100     78.3900
    122     11.6550    -44.1690     22.7590      1.5900     78.3900
    123     12.0530    -43.3040     22.5750      0.0100     78.3900
    124     11.4830    -43.5260     25.1000      1.7700     78.3900
    125     10.7510    -43.1580     25.8520      0.0100     78.3900
    126     12.5670    -42.5880     24.8900      1.5900     78.3900
    127     12.2230    -41.0690     24.6290      2.1000     78.3900
    128     11.4070    -40.5870     25.7690      1.5900     78.3900
    129     13.4870    -40.3570     24.3320      1.5900     78.3900
    130     11.3610    -41.0620     23.3100      1.5900     78.3900
    131     10.3090    -40.0730     23.1770      1.7700     78.3900
    132     10.7520    -39.0530     23.1040      0.0100     78.3900
    133      9.6330    -40.0820     24.0620      0.0100     78.3900
    134      9.4310    -40.3270     21.9370      1.7700     78.3900
    135     10.0590    -40.3250     21.0260      0.0100     78.3900
    136      8.7960    -41.6390     21.9960      1.5900     78.3900
    137      7.4370    -41.5320     21.5880      1.7700     78.3900
    138      7.2950    -42.3320     20.8310      0.0100     78.3900
    139      6.4730    -41.7530     22.6860      1.6800     78.3900
    140      6.6700    -41.7990     24.0530      1.7700     78.3900
    141      8.8130    -41.5750     26.7490      1.6800     78.3900
    142      8.7910    -41.5810     27.7450      0.0100     78.3900
    143      9.6650    -41.3050     26.2860      0.0100     78.3900
    144      7.8360    -41.6530     24.7030      1.6800     78.3900
    145      7.7350    -41.7540     26.0070      1.7700     78.3900
    146      6.5400    -41.9610     26.6480      1.6800     78.3900
    147      6.5420    -42.1180     27.6430      0.0100     78.3900
    148      5.3160    -42.1440     25.9970      1.7700     78.3900
    149      4.2720    -42.3340     26.6150      1.5900     78.3900
    150      5.4290    -42.0250     24.5940      1.7700     78.3900
    151      4.4610    -42.1290     23.6040      1.6800     78.3900
    152      5.1260    -41.9630     22.4900      1.7700     78.3900
    153      4.6880    -41.9950     21.4890      0.0100     78.3900
    154      7.2580    -40.1710     20.9470      1.7700     78.3900
    155      6.2330    -39.7560     21.0780      0.0100     78.3900
    156      7.5730    -40.2590     19.5670      1.5900     78.3900
    157      7.6410    -39.3570     19.2150      0.0100     78.3900
    158      8.2730    -39.3370     21.7270      1.7700     78.3900
    159      7.8630    -39.1160     22.7390      0.0100     78.3900
    160      8.7500    -38.1620     21.0370      1.5900     78.3900
    161      8.0850    -36.7570     21.2850      2.1000     78.3900
    162      8.3650    -36.3350     22.6760      1.5900     78.3900
    163      8.5350    -35.8460     20.2080      1.5900     78.3900
    164      6.5380    -36.9960     21.1010      1.5900     78.3900
    165      5.5910    -36.2650     21.9210      1.7700     78.3900
    166      5.6050    -35.1770     21.6760      0.0100     78.3900
    167      5.8430    -36.3520     23.0000      0.0100     78.3900
    168      4.1540    -36.7920     21.7210      1.7700     78.3900
    169      3.8470    -36.6710     20.6620      0.0100     78.3900
    170      4.0570    -38.2220     22.0280      1.5900     78.3900
    171      2.8850    -38.4670     22.8040      1.7700     78.3900
    172      2.3670    -39.3210     22.3150      0.0100     78.3900
    173      3.1680    -38.8200     24.2150      1.6800     78.3900
    174      4.3430    -38.7130     24.9270      1.7700     78.3900
    175      7.7020    -37.8550     25.0600      1.6800     78.3900
    176      8.4470    -37.8210     25.7260      0.0100     78.3900
    177      7.8240    -37.4180     24.1630      0.0100     78.3900
    178      5.5270    -38.2660     24.4720      1.6800     78.3900
    179      6.4930    -38.2880     25.3620      1.7700     78.3900
    180      6.2960    -38.7050     26.6440      1.6800     78.3900
    181      7.0760    -38.6840     27.2880      0.0100     78.3900
    182      5.0810    -39.1440     27.1450      1.7700     78.3900
    183      4.9880    -39.5070     28.3040      1.5900     78.3900
    184      4.0450    -39.1440     26.1920      1.7700     78.3900
    185      2.7130    -39.5310     26.3020      1.6800     78.3900
    186      2.2320    -39.3210     25.0980      1.7700     78.3900
    187      1.2040    -39.5320     24.7860      0.0100     78.3900
    188      2.0290    -37.2270     22.7200      1.7700     78.3900
    189      1.4080    -37.0730     23.6290      0.0100     78.3900
    190      1.1970    -37.2780     21.5760      1.5900     78.3900
    191      0.8870    -36.3740     21.4030      0.0100     78.3900
    192      3.0860    -36.1380     22.6050      1.7700     78.3900
    193      3.5710    -35.9840     23.5960      0.0100     78.3900
    194      2.5940    -34.9260     22.0000      1.5900     78.3900
    195      2.5670    -33.5710     22.7900      2.1000     78.3900
    196      3.9570    -33.1130     22.9930      1.5900     78.3900
    197      1.6450    -32.6430     22.0910      1.5900     78.3900
    198      1.9710    -33.9460     24.1910      1.5900     78.3900
    199      0.5950    -34.3410     24.3720      1.7700     78.3900
    200      0.3000    -35.1470     23.6610      0.0100     78.3900
    201     -0.0780    -33.4710     24.1980      0.0100     78.3900
    202      0.3620    -34.8720     25.7980      1.7700     78.3900
    203     -0.6840    -35.2280     25.9180      0.0100     78.3900
    204      1.2350    -36.0130     26.0620      1.5900     78.3900
    205      1.7020    -35.9620     27.4060      1.7700     78.3900
    206      1.4120    -36.9360     27.8650      0.0100     78.3900
    207      3.1880    -35.8010     27.4830      1.6800     78.3900
    208      3.9080    -35.4110     26.3770      1.7700     78.3900
    209      3.3260    -35.2460     25.4740      0.0100     78.3900
    210      3.8230    -36.0570     28.6800      1.7700     78.3900
    211      3.2160    -36.3790     29.6940      1.5900     78.3900
    212      5.1920    -35.9270     28.6530      1.6800     78.3900
    213      5.6610    -36.0800     29.5400      0.0100     78.3900
    214      5.9740    -35.5770     27.5680      1.7700     78.3900
    215      7.1980    -35.5480     27.6650      1.5900     78.3900
    216      5.2410    -35.2950     26.3750      1.7700     78.3900
    217      5.7880    -35.0340     25.4720      0.0100     78.3900
    218      0.9460    -34.8360     28.0950      1.7700     78.3900
    219      1.5540    -34.3440     28.8790      0.0100     78.3900
    220     -0.2510    -35.3280     28.6620      1.5900     78.3900
    221     -0.7720    -34.5570     28.9210      0.0100     78.3900
    222      0.6590    -33.8880     26.9340      1.7700     78.3900
    223      1.6050    -33.3740     26.6350      0.0100     78.3900
    224     -0.4740    -32.9870     27.1360      1.5900     78.3900
    225     -0.1210    -31.4980     27.5280      2.1000     78.3900
    226      0.9890    -31.0010     26.6860      1.5900     78.3900
    227     -1.3530    -30.6810     27.5150      1.5900     78.3900
    228      0.3740    -31.6370     29.0130      1.5900     78.3900
    229     -0.5660    -32.0140     30.0490      1.7700     78.3900
    230     -1.0590    -32.9880     29.8220      0.0100     78.3900
    231     -1.3690    -31.2460     30.1530      0.0100     78.3900
    232      0.1370    -32.1510     31.4040      1.7700     78.3900
    233     -0.5900    -32.4070     32.2050      0.0100     78.3900
    234      1.1120    -33.2310     31.3450      1.5900     78.3900
    235      2.2690    -32.8550     32.0830      1.7700     78.3900
    236      2.4170    -33.6600     32.8390      0.0100     78.3900
    237      3.4910    -32.7650     31.2320      1.6800     78.3900
    238      3.3800    -32.6300     29.8660      1.7700     78.3900
    239      2.3670    -32.6020     29.4710      0.0100     78.3900
    240      4.4590    -32.5790     29.0760      1.7700     78.3900
    241      4.3830    -32.5150     27.9930      0.0100     78.3900
    242      4.7520    -32.7930     31.8180      1.7700     78.3900
    243      4.8420    -32.8840     33.0520      1.5900     78.3900
    244      5.8560    -32.7230     31.0390      1.6800     78.3900
    245      5.7360    -32.6360     29.7030      1.7700     78.3900
    246      6.8400    -32.6140     28.9580      1.6800     78.3900
    247      7.7350    -32.6560     29.4090      0.0100     78.3900
    248      6.8090    -32.5530     27.9630      0.0100     78.3900
    249      1.9520    -31.5520     32.8050      1.7700     78.3900
    250      2.8490    -30.9080     32.9160      0.0100     78.3900
    251      1.3890    -31.8290     34.0790      1.5900     78.3900
    252      1.0270    -31.0050     34.4450      0.0100     78.3900
    253      0.9410    -30.9220     31.8510      1.7700     78.3900
    254      1.4580    -30.4990     30.9640      0.0100     78.3900
    255      0.0730    -29.9470     32.4580      1.5900     78.3900
    256      0.5820    -29.1620     32.7230      0.0100     78.3900
    257     16.8030    -33.8070     33.6450      0.0100     78.3900
    258     15.8880    -33.8220     33.9790      1.5900     78.3900
    259     15.9590    -33.6220     35.3980      1.7700     78.3900
    260     16.4150    -32.6270     35.6030      0.0100     78.3900
    261     16.6220    -34.3950     35.8480      0.0100     78.3900
    262     14.5910    -33.6840     36.0840      1.7700     78.3900
    263     14.6990    -33.6160     37.1880      0.0100     78.3900
    264     13.7720    -32.5570     35.6580      1.5900     78.3900
    265     12.4300    -32.9950     35.5030      1.7700     78.3900
    266     11.7960    -32.3190     36.1180      0.0100     78.3900
    267     11.9920    -32.9140     34.1010      1.6800     78.3900
    268     10.6920    -32.8970     33.6750      1.7700     78.3900
    269      7.3020    -33.0450     34.3550      1.6800     78.3900
    270      7.2770    -33.0780     35.3500      0.0100     78.3900
    271      6.4370    -32.9820     33.8480      0.0100     78.3900
    272      9.6010    -32.9700     34.4630      1.6800     78.3900
    273      8.4720    -32.9490     33.7570      1.7700     78.3900
    274      8.4370    -32.8220     32.3940      1.6800     78.3900
    275      7.5370    -32.7940     31.9400      0.0100     78.3900
    276      9.5440    -32.7170     31.5610      1.7700     78.3900
    277      9.4240    -32.5930     30.3380      1.5900     78.3900
    278     10.7560    -32.7730     32.2990      1.7700     78.3900
    279     12.0770    -32.7330     31.8640      1.6800     78.3900
    280     12.7800    -32.8380     32.9690      1.7700     78.3900
    281     13.8720    -32.8420     33.0290      0.0100     78.3900
    282     12.3460    -34.4020     36.0440      1.7700     78.3900
    283     11.5690    -35.0070     35.5350      0.0100     78.3900
    284     12.0880    -34.3730     37.4340      1.5900     78.3900
    285     12.0670    -35.2940     37.7230      0.0100     78.3900
    286     13.7490    -34.9220     35.7470      1.7700     78.3900
    287     13.8660    -35.1110     34.6560      0.0100     78.3900
    288     14.1880    -36.0340     36.5520      1.5900     78.3900
    289     13.8900    -37.5090     36.0920      2.1000     78.3900
    290     14.2970    -37.6590     34.6770      1.5900     78.3900
    291     14.5270    -38.4420     37.0480      1.5900     78.3900
    292     12.3330    -37.6290     36.2310      1.5900     78.3900
    293     11.7420    -37.7470     37.5500      1.7700     78.3900
    294     11.9630    -36.8540     38.1780      0.0100     78.3900
    295     12.1410    -38.6400     38.0870      0.0100     78.3900
    296     10.2220    -37.8940     37.4430      1.7700     78.3900
    297      9.7560    -37.9920     38.4500      0.0100     78.3900
    298      9.6610    -36.7080     36.8040      1.5900     78.3900
    299      8.5950    -37.1000     35.9510      1.7700     78.3900
    300      7.6970    -36.5270     36.2750      0.0100     78.3900
    301      8.8720    -36.7810     34.5480      1.6800     78.3900
    302      8.6960    -36.2950     32.4130      1.7700     78.3900
    303     10.0520    -36.2720     32.7040      1.6800     78.3900
    304     10.1030    -36.5740     33.9760      1.7700     78.3900
    305     11.0180    -36.6580     34.5620      0.0100     78.3900
    306      6.6370    -36.1800     31.2510      1.6800     78.3900
    307      6.0600    -36.5220     32.4080      1.7700     78.3900
    308      4.9700    -36.6260     32.3690      0.0100     78.3900
    309      6.6150    -36.7560     33.6070      1.6800     78.3900
    310      7.9530    -36.6170     33.5380      1.7700     78.3900
    311      7.9870    -36.0500     31.2210      1.7700     78.3900
    312      8.6010    -35.6930     30.0800      1.6800     78.3900
    313      9.5990    -35.5940     30.0250      0.0100     78.3900
    314      8.0730    -35.5550     29.2380      0.0100     78.3900
    315      8.3600    -38.5760     36.1690      1.7700     78.3900
    316      8.0010    -39.0930     35.2550      0.0100     78.3900
    317      7.4370    -38.7360     37.2310      1.5900     78.3900
    318      7.2360    -39.6850     37.3370      0.0100     78.3900
    319      9.7530    -39.0500     36.5530      1.7700     78.3900
    320     10.4240    -39.0320     35.6620      0.0100     78.3900
    321      9.7930    -40.3100     37.2690      1.5900     78.3900
    322      9.8720    -41.6190     36.3870      2.1000     78.3900
    323      9.9170    -41.2440     34.9570      1.5900     78.3900
    324     10.9670    -42.4880     36.8710      1.5900     78.3900
    325      8.5220    -42.3960     36.6070      1.5900     78.3900
    326      7.9240    -42.6270     37.8980      1.7700     78.3900
    327      8.3360    -41.9510     38.6840      0.0100     78.3900
    328      8.1320    -43.6740     38.2070      0.0100     78.3900
    329      6.4010    -42.4230     37.8510      1.7700     78.3900
    330      5.9640    -42.4640     38.8720      0.0100     78.3900
    331      6.1200    -41.1050     37.3100      1.5900     78.3900
    332      4.9720    -41.1620     36.4880      1.7700     78.3900
    333      4.2580    -40.4100     36.8980      0.0100     78.3900
    334      5.2790    -40.8150     35.1030      1.6800     78.3900
    335      5.0940    -40.0610     33.0610      1.7700     78.3900
    336      6.4120    -40.4760     33.1900      1.6800     78.3900
    337      6.4700    -40.9250     34.4180      1.7700     78.3900
    338      7.3650    -41.3180     34.8950      0.0100     78.3900
    339      3.0730    -39.2260     32.1510      1.6800     78.3900
    340      2.5160    -39.5250     33.3260      1.7700     78.3900
    341      1.4460    -39.3050     33.4000      0.0100     78.3900
    342      3.0790    -40.0310     34.4310      1.6800     78.3900
    343      4.3830    -40.2840     34.2190      1.7700     78.3900
    344      4.3970    -39.4650     32.0000      1.7700     78.3900
    345      5.0220    -39.0920     30.8890      1.6800     78.3900
    346      5.9850    -39.3270     30.7390      0.0100     78.3900
    347      4.4820    -38.9030     30.0650      0.0100     78.3900
    348      4.3800    -42.5370     36.6120      1.7700     78.3900
    349      3.9100    -42.8840     35.6700      0.0100     78.3900
    350      3.4340    -42.5420     37.6650      1.5900     78.3900
    351      3.2170    -43.4650     37.8530      0.0100     78.3900
    352      5.6050    -43.3800     36.9440      1.7700     78.3900
    353      6.2340    -43.5420     36.0330      0.0100     78.3900
    354      5.2910    -44.6050     37.6490      1.5900     78.3900
    355      5.1330    -45.9360     36.8090      2.1000     78.3900
    356      6.3500    -46.1380     35.9960      1.5900     78.3900
    357      4.7670    -47.0410     37.7230      1.5900     78.3900
    358      3.9190    -45.6640     35.8510      1.5900     78.3900
    359      2.5610    -45.6060     36.3380      1.7700     78.3900
    360      2.4670    -44.8870     37.1800      0.0100     78.3900
    361      2.2370    -46.6040     36.7110      0.0100     78.3900
    362      1.5840    -45.1690     35.2290      1.7700     78.3900
    363      0.5610    -45.0410     35.6340      0.0100     78.3900
    364      1.9820    -43.8860     34.6760      1.5900     78.3900
    365      1.8210    -43.9030     33.2710      1.7700     78.3900
    366      1.1720    -43.0310     33.0380      0.0100     78.3900
    367      3.0940    -43.7270     32.5760      1.6800     78.3900
    368      3.2600    -43.0570     31.4010      1.7700     78.3900
    369      1.9870    -41.1280     28.8160      1.6800     78.3900
    370      1.0070    -41.0860     29.0010      0.0100     78.3900
    371      2.3420    -40.7060     27.9780      0.0100     78.3900
    372      2.2830    -42.4560     30.6920      1.6800     78.3900
    373      2.7620    -41.8470     29.6110      1.7700     78.3900
    374      4.0830    -41.8620     29.2750      1.6800     78.3900
    375      4.3380    -41.3890     28.4260      0.0100     78.3900
    376      5.1150    -42.4640     29.9700      1.7700     78.3900
    377      6.2830    -42.3840     29.5710      1.5900     78.3900
    378      4.6200    -43.1150     31.1320      1.7700     78.3900
    379      5.2890    -43.8230     32.1260      1.6800     78.3900
    380      4.3370    -44.1740     32.9540      1.7700     78.3900
    381      4.4860    -44.7530     33.8620      0.0100     78.3900
    382      1.1170    -45.1830     32.8820      1.7700     78.3900
    383      1.4630    -45.5830     31.9030      0.0100     78.3900
    384     -0.2800    -44.9710     32.8380      1.5900     78.3900
    385     -0.6900    -45.8240     32.6180      0.0100     78.3900
    386      1.5100    -46.1200     34.0230      1.7700     78.3900
    387      2.5490    -46.4920     33.8670      0.0100     78.3900
    388      0.5780    -47.1980     34.2980      1.5900     78.3900
    389      0.5340    -48.4180     33.3030      2.1000     78.3900
    390      1.8700    -48.5490     32.6830      1.5900     78.3900
    391     -0.0150    -49.5940     34.0140      1.5900     78.3900
    392     -0.5420    -47.9600     32.2270      1.5900     78.3900
    393     -0.6340    -48.7100     30.9730      1.7700     78.3900
    394     -1.3660    -49.5420     31.0690      0.0100     78.3900
    395      0.3370    -49.1830     30.7020      0.0100     78.3900
    396     -1.0580    -47.8470     29.7570      1.7700     78.3900
    397     -2.1520    -47.6610     29.7620      0.0100     78.3900
    398     -0.4190    -46.5380     29.8490      1.5900     78.3900
    399      0.1120    -46.1640     28.5890      1.7700     78.3900
    400     -0.2680    -45.1330     28.3990      0.0100     78.3900
    401      1.5970    -46.1490     28.5780      1.6800     78.3900
    402      2.3080    -46.8960     29.4910      1.7700     78.3900
    403      1.7210    -47.4650     30.2180      0.0100     78.3900
    404      3.6450    -46.8960     29.4930      1.7700     78.3900
    405      4.2290    -47.4660     30.2050      0.0100     78.3900
    406      2.2790    -45.3940     27.6280      1.7700     78.3900
    407      1.6290    -44.7320     26.8080      1.5900     78.3900
    408      3.6270    -45.3940     27.6120      1.6800     78.3900
    409      4.3100    -46.1210     28.5070      1.7700     78.3900
    410      5.6370    -46.0950     28.4780      1.6800     78.3900
    411      6.0630    -45.5470     27.7480      0.0100     78.3900
    412      6.2000    -46.6160     29.1060      0.0100     78.3900
    413     -0.4700    -47.1030     27.5530      1.7700     78.3900
    414      0.2040    -47.2640     26.6850      0.0100     78.3900
    415     -1.7140    -46.6030     27.1000      1.5900     78.3900
    416     -2.1880    -47.3340     26.6750      0.0100     78.3900
    417     -0.6370    -48.3820     28.3620      1.7700     78.3900
    418      0.3660    -48.8590     28.4990      0.0100     78.3900
    419     -1.6380    -49.2860     27.8230      1.5900     78.3900
    420     -1.1740    -50.6380     27.1540      2.1000     78.3900
    421     -0.2630    -51.3440     28.0780      1.5900     78.3900
    422     -2.3940    -51.3640     26.7370      1.5900     78.3900
    423     -0.3630    -50.1760     25.8820      1.5900     78.3900
    424     -1.0630    -49.7530     24.6840      1.7700     78.3900
    425     -1.6170    -48.8030     24.8710      0.0100     78.3900
    426     -1.8090    -50.5140     24.3570      0.0100     78.3900
    427     -0.0970    -49.5290     23.5080      1.7700     78.3900
    428     -0.6560    -49.2680     22.5790      0.0100     78.3900
    429      0.7600    -48.3950     23.8230      1.5900     78.3900
    430      2.0820    -48.6570     23.3860      1.7700     78.3900
    431      2.3800    -47.8090     22.7300      0.0100     78.3900
    432      3.0080    -48.7240     24.5180      1.6800     78.3900
    433      4.8240    -48.7440     25.7390      1.7700     78.3900
    434      3.7590    -48.7650     26.6370      1.6800     78.3900
    435      2.7080    -48.7610     25.8570      1.7700     78.3900
    436      1.6700    -48.7860     26.1930      0.0100     78.3900
    437      7.0130    -48.6760     24.8050      1.6800     78.3900
    438      6.4210    -48.6850     23.6090      1.7700     78.3900
    439      7.0970    -48.6670     22.7420      0.0100     78.3900
    440      5.1150    -48.7110     23.3160      1.6800     78.3900
    441      4.3720    -48.7240     24.4370      1.7700     78.3900
    442      6.2220    -48.7150     25.9090      1.7700     78.3900
    443      6.8190    -48.7100     27.1000      1.6800     78.3900
    444      6.2920    -48.8540     27.9490      0.0100     78.3900
    445      7.7520    -48.3560     27.1590      0.0100     78.3900
    446      2.0620    -49.9370     22.5820      1.7700     78.3900
    447      2.9930    -50.5230     22.7020      0.0100     78.3900
    448      1.8510    -49.6490     21.2110      1.5900     78.3900
    449      1.6280    -50.4820     20.7690      0.0100     78.3900
    450      0.8830    -50.6790     23.2020      1.7700     78.3900
    451      1.1770    -51.1100     24.1880      0.0100     78.3900
    452      0.2750    -51.6520     22.3230      1.5900     78.3900
    453      0.6260    -53.1830     22.4760      2.1000     78.3900
    454      0.1680    -53.6580     23.8040      1.5900     78.3900
    455      0.0370    -53.8750     21.3070      1.5900     78.3900
    456      2.1940    -53.2630     22.3980      1.5900     78.3900
    457      2.8940    -53.1310     21.1360      1.7700     78.3900
    458      2.6060    -52.1930     20.6070      0.0100     78.3900
    459      2.6660    -53.9870     20.4570      0.0100     78.3900
    460      4.4170    -53.1050     21.3530      1.7700     78.3900
    461      4.9580    -52.9490     20.3950      0.0100     78.3900
    462      4.7730    -52.0030     22.2390      1.5900     78.3900
    463      5.7570    -52.4210     23.1710      1.7700     78.3900
    464      6.5990    -51.6950     23.0960      0.0100     78.3900
    465      5.2460    -52.4060     24.5590      1.6800     78.3900
    466      6.0060    -52.4830     25.6960      1.7700     78.3900
    467      9.0810    -52.8830     27.2360      1.6800     78.3900
    468      9.4590    -52.9980     28.1560      0.0100     78.3900
    469      9.7050    -52.9070     26.4550      0.0100     78.3900
    470      7.3430    -52.6150     25.7440      1.6800     78.3900
    471      7.8000    -52.7180     26.9890      1.7700     78.3900
    472      6.9990    -52.6540     28.0910      1.6800     78.3900
    473      7.4180    -52.7630     28.9990      0.0100     78.3900
    474      5.6260    -52.5050     28.0760      1.7700     78.3900
    475      5.0240    -52.4760     29.1530      1.5900     78.3900
    476      5.1110    -52.4140     26.7500      1.7700     78.3900
    477      3.7990    -52.3000     26.2850      1.6800     78.3900
    478      3.9330    -52.3040     24.9770      1.7700     78.3900
    479      3.1160    -52.2290     24.2600      0.0100     78.3900
    480      6.2330    -53.7900     22.7290      1.7700     78.3900
    481      6.5510    -54.4280     23.5790      0.0100     78.3900
    482      7.3070    -53.6530     21.8180      1.5900     78.3900
    483      7.4140    -54.5030     21.3670      0.0100     78.3900
    484      4.9920    -54.3520     22.0420      1.7700     78.3900
    485      4.2400    -54.6650     22.8040      0.0100     78.3900
    486      5.2630    -55.3740     21.0570      1.5900     78.3900
    487      5.0720    -56.8890     21.4270      2.1000     78.3900
    488      3.7180    -57.0800     21.9880      1.5900     78.3900
    489      5.4150    -57.7250     20.2530      1.5900     78.3900
    490      6.1320    -57.1080     22.5780      1.5900     78.3900
    491      7.5520    -57.1280     22.3000      1.7700     78.3900
    492      7.9070    -56.1430     21.9230      0.0100     78.3900
    493      7.7900    -57.8880     21.5190      0.0100     78.3900
    494      8.3680    -57.4720     23.5540      1.7700     78.3900
    495      9.4300    -57.6620     23.2870      0.0100     78.3900
    496      8.3660    -56.3310     24.4590      1.5900     78.3900
    497      8.2870    -56.7990     25.8010      1.7700     78.3900
    498      9.1630    -56.3560     26.3310      0.0100     78.3900
    499      7.0320    -56.3700     26.4830      1.6800     78.3900
    500      5.9260    -56.0180     25.7460      1.7700     78.3900
    501      6.0530    -56.0400     24.6630      0.0100     78.3900
    502      4.7830    -55.6390     26.3340      1.7700     78.3900
    503      3.9100    -55.3230     25.7630      0.0100     78.3900
    504      6.9480    -56.3990     27.8710      1.7700     78.3900
    505      7.9210    -56.7940     28.5280      1.5900     78.3900
    506      5.8110    -56.0070     28.4850      1.6800     78.3900
    507      4.7410    -55.6430     27.7580      1.7700     78.3900
    508      3.6340    -55.2750     28.3930      1.6800     78.3900
    509      3.6350    -55.2110     29.3940      0.0100     78.3900
    510      2.8480    -54.8980     27.9010      0.0100     78.3900
    511      8.4410    -58.3150     25.7720      1.7700     78.3900
    512      7.8540    -58.8080     26.5770      0.0100     78.3900
    513      9.8120    -58.6730     25.8810      1.5900     78.3900
    514      9.9030    -59.6250     25.6920      0.0100     78.3900
    515      7.8570    -58.6460     24.4030      1.7700     78.3900
    516      6.7480    -58.5960     24.4380      0.0100     78.3900
    517      8.3000    -59.9030     23.8600      1.5900     78.3900
    518      7.9170    -60.6380     24.3690      0.0100     78.3900

     ----------------------------
     INPUT FOR TESSERA DEFINITION
     ----------------------------
     NTSALL  =        60     MTHALL  =         4
     MTHAUT  =         0     AUTFRE  =    2.0000
     NTSFRZ  =        60     KEEPSM  =         0
     AREAKP  =   10.0000     BONDRY  =    1.0000
     AREATL  =    0.0100

     SPHERE     INITS       METHOD
          1        60       FIXPVA
          2        60       FIXPVA
          3        60       FIXPVA
          4        60       FIXPVA
          5        60       FIXPVA
          6        60       FIXPVA
          7        60       FIXPVA
          8        60       FIXPVA
          9        60       FIXPVA
         10        60       FIXPVA
         11        60       FIXPVA
         12        60       FIXPVA
         13        60       FIXPVA
         14        60       FIXPVA
         15        60       FIXPVA
         16        60       FIXPVA
         17        60       FIXPVA
         18        60       FIXPVA
         19        60       FIXPVA
         20        60       FIXPVA
         21        60       FIXPVA
         22        60       FIXPVA
         23        60       FIXPVA
         24        60       FIXPVA
         25        60       FIXPVA
         26        60       FIXPVA
         27        60       FIXPVA
         28        60       FIXPVA
         29        60       FIXPVA
         30        60       FIXPVA
         31        60       FIXPVA
         32        60       FIXPVA
         33        60       FIXPVA
         34        60       FIXPVA
         35        60       FIXPVA
         36        60       FIXPVA
         37        60       FIXPVA
         38        60       FIXPVA
         39        60       FIXPVA
         40        60       FIXPVA
         41        60       FIXPVA
         42        60       FIXPVA
         43        60       FIXPVA
         44        60       FIXPVA
         45        60       FIXPVA
         46        60       FIXPVA
         47        60       FIXPVA
         48        60       FIXPVA
         49        60       FIXPVA
         50        60       FIXPVA
         51        60       FIXPVA
         52        60       FIXPVA
         53        60       FIXPVA
         54        60       FIXPVA
         55        60       FIXPVA
         56        60       FIXPVA
         57        60       FIXPVA
         58        60       FIXPVA
         59        60       FIXPVA
         60        60       FIXPVA
         61        60       FIXPVA
         62        60       FIXPVA
         63        60       FIXPVA
         64        60       FIXPVA
         65        60       FIXPVA
         66        60       FIXPVA
         67        60       FIXPVA
         68        60       FIXPVA
         69        60       FIXPVA
         70        60       FIXPVA
         71        60       FIXPVA
         72        60       FIXPVA
         73        60       FIXPVA
         74        60       FIXPVA
         75        60       FIXPVA
         76        60       FIXPVA
         77        60       FIXPVA
         78        60       FIXPVA
         79        60       FIXPVA
         80        60       FIXPVA
         81        60       FIXPVA
         82        60       FIXPVA
         83        60       FIXPVA
         84        60       FIXPVA
         85        60       FIXPVA
         86        60       FIXPVA
         87        60       FIXPVA
         88        60       FIXPVA
         89        60       FIXPVA
         90        60       FIXPVA
         91        60       FIXPVA
         92        60       FIXPVA
         93        60       FIXPVA
         94        60       FIXPVA
         95        60       FIXPVA
         96        60       FIXPVA
         97        60       FIXPVA
         98        60       FIXPVA
         99        60       FIXPVA
        100        60       FIXPVA
        101        60       FIXPVA
        102        60       FIXPVA
        103        60       FIXPVA
        104        60       FIXPVA
        105        60       FIXPVA
        106        60       FIXPVA
        107        60       FIXPVA
        108        60       FIXPVA
        109        60       FIXPVA
        110        60       FIXPVA
        111        60       FIXPVA
        112        60       FIXPVA
        113        60       FIXPVA
        114        60       FIXPVA
        115        60       FIXPVA
        116        60       FIXPVA
        117        60       FIXPVA
        118        60       FIXPVA
        119        60       FIXPVA
        120        60       FIXPVA
        121        60       FIXPVA
        122        60       FIXPVA
        123        60       FIXPVA
        124        60       FIXPVA
        125        60       FIXPVA
        126        60       FIXPVA
        127        60       FIXPVA
        128        60       FIXPVA
        129        60       FIXPVA
        130        60       FIXPVA
        131        60       FIXPVA
        132        60       FIXPVA
        133        60       FIXPVA
        134        60       FIXPVA
        135        60       FIXPVA
        136        60       FIXPVA
        137        60       FIXPVA
        138        60       FIXPVA
        139        60       FIXPVA
        140        60       FIXPVA
        141        60       FIXPVA
        142        60       FIXPVA
        143        60       FIXPVA
        144        60       FIXPVA
        145        60       FIXPVA
        146        60       FIXPVA
        147        60       FIXPVA
        148        60       FIXPVA
        149        60       FIXPVA
        150        60       FIXPVA
        151        60       FIXPVA
        152        60       FIXPVA
        153        60       FIXPVA
        154        60       FIXPVA
        155        60       FIXPVA
        156        60       FIXPVA
        157        60       FIXPVA
        158        60       FIXPVA
        159        60       FIXPVA
        160        60       FIXPVA
        161        60       FIXPVA
        162        60       FIXPVA
        163        60       FIXPVA
        164        60       FIXPVA
        165        60       FIXPVA
        166        60       FIXPVA
        167        60       FIXPVA
        168        60       FIXPVA
        169        60       FIXPVA
        170        60       FIXPVA
        171        60       FIXPVA
        172        60       FIXPVA
        173        60       FIXPVA
        174        60       FIXPVA
        175        60       FIXPVA
        176        60       FIXPVA
        177        60       FIXPVA
        178        60       FIXPVA
        179        60       FIXPVA
        180        60       FIXPVA
        181        60       FIXPVA
        182        60       FIXPVA
        183        60       FIXPVA
        184        60       FIXPVA
        185        60       FIXPVA
        186        60       FIXPVA
        187        60       FIXPVA
        188        60       FIXPVA
        189        60       FIXPVA
        190        60       FIXPVA
        191        60       FIXPVA
        192        60       FIXPVA
        193        60       FIXPVA
        194        60       FIXPVA
        195        60       FIXPVA
        196        60       FIXPVA
        197        60       FIXPVA
        198        60       FIXPVA
        199        60       FIXPVA
        200        60       FIXPVA
        201        60       FIXPVA
        202        60       FIXPVA
        203        60       FIXPVA
        204        60       FIXPVA
        205        60       FIXPVA
        206        60       FIXPVA
        207        60       FIXPVA
        208        60       FIXPVA
        209        60       FIXPVA
        210        60       FIXPVA
        211        60       FIXPVA
        212        60       FIXPVA
        213        60       FIXPVA
        214        60       FIXPVA
        215        60       FIXPVA
        216        60       FIXPVA
        217        60       FIXPVA
        218        60       FIXPVA
        219        60       FIXPVA
        220        60       FIXPVA
        221        60       FIXPVA
        222        60       FIXPVA
        223        60       FIXPVA
        224        60       FIXPVA
        225        60       FIXPVA
        226        60       FIXPVA
        227        60       FIXPVA
        228        60       FIXPVA
        229        60       FIXPVA
        230        60       FIXPVA
        231        60       FIXPVA
        232        60       FIXPVA
        233        60       FIXPVA
        234        60       FIXPVA
        235        60       FIXPVA
        236        60       FIXPVA
        237        60       FIXPVA
        238        60       FIXPVA
        239        60       FIXPVA
        240        60       FIXPVA
        241        60       FIXPVA
        242        60       FIXPVA
        243        60       FIXPVA
        244        60       FIXPVA
        245        60       FIXPVA
        246        60       FIXPVA
        247        60       FIXPVA
        248        60       FIXPVA
        249        60       FIXPVA
        250        60       FIXPVA
        251        60       FIXPVA
        252        60       FIXPVA
        253        60       FIXPVA
        254        60       FIXPVA
        255        60       FIXPVA
        256        60       FIXPVA
        257        60       FIXPVA
        258        60       FIXPVA
        259        60       FIXPVA
        260        60       FIXPVA
        261        60       FIXPVA
        262        60       FIXPVA
        263        60       FIXPVA
        264        60       FIXPVA
        265        60       FIXPVA
        266        60       FIXPVA
        267        60       FIXPVA
        268        60       FIXPVA
        269        60       FIXPVA
        270        60       FIXPVA
        271        60       FIXPVA
        272        60       FIXPVA
        273        60       FIXPVA
        274        60       FIXPVA
        275        60       FIXPVA
        276        60       FIXPVA
        277        60       FIXPVA
        278        60       FIXPVA
        279        60       FIXPVA
        280        60       FIXPVA
        281        60       FIXPVA
        282        60       FIXPVA
        283        60       FIXPVA
        284        60       FIXPVA
        285        60       FIXPVA
        286        60       FIXPVA
        287        60       FIXPVA
        288        60       FIXPVA
        289        60       FIXPVA
        290        60       FIXPVA
        291        60       FIXPVA
        292        60       FIXPVA
        293        60       FIXPVA
        294        60       FIXPVA
        295        60       FIXPVA
        296        60       FIXPVA
        297        60       FIXPVA
        298        60       FIXPVA
        299        60       FIXPVA
        300        60       FIXPVA
        301        60       FIXPVA
        302        60       FIXPVA
        303        60       FIXPVA
        304        60       FIXPVA
        305        60       FIXPVA
        306        60       FIXPVA
        307        60       FIXPVA
        308        60       FIXPVA
        309        60       FIXPVA
        310        60       FIXPVA
        311        60       FIXPVA
        312        60       FIXPVA
        313        60       FIXPVA
        314        60       FIXPVA
        315        60       FIXPVA
        316        60       FIXPVA
        317        60       FIXPVA
        318        60       FIXPVA
        319        60       FIXPVA
        320        60       FIXPVA
        321        60       FIXPVA
        322        60       FIXPVA
        323        60       FIXPVA
        324        60       FIXPVA
        325        60       FIXPVA
        326        60       FIXPVA
        327        60       FIXPVA
        328        60       FIXPVA
        329        60       FIXPVA
        330        60       FIXPVA
        331        60       FIXPVA
        332        60       FIXPVA
        333        60       FIXPVA
        334        60       FIXPVA
        335        60       FIXPVA
        336        60       FIXPVA
        337        60       FIXPVA
        338        60       FIXPVA
        339        60       FIXPVA
        340        60       FIXPVA
        341        60       FIXPVA
        342        60       FIXPVA
        343        60       FIXPVA
        344        60       FIXPVA
        345        60       FIXPVA
        346        60       FIXPVA
        347        60       FIXPVA
        348        60       FIXPVA
        349        60       FIXPVA
        350        60       FIXPVA
        351        60       FIXPVA
        352        60       FIXPVA
        353        60       FIXPVA
        354        60       FIXPVA
        355        60       FIXPVA
        356        60       FIXPVA
        357        60       FIXPVA
        358        60       FIXPVA
        359        60       FIXPVA
        360        60       FIXPVA
        361        60       FIXPVA
        362        60       FIXPVA
        363        60       FIXPVA
        364        60       FIXPVA
        365        60       FIXPVA
        366        60       FIXPVA
        367        60       FIXPVA
        368        60       FIXPVA
        369        60       FIXPVA
        370        60       FIXPVA
        371        60       FIXPVA
        372        60       FIXPVA
        373        60       FIXPVA
        374        60       FIXPVA
        375        60       FIXPVA
        376        60       FIXPVA
        377        60       FIXPVA
        378        60       FIXPVA
        379        60       FIXPVA
        380        60       FIXPVA
        381        60       FIXPVA
        382        60       FIXPVA
        383        60       FIXPVA
        384        60       FIXPVA
        385        60       FIXPVA
        386        60       FIXPVA
        387        60       FIXPVA
        388        60       FIXPVA
        389        60       FIXPVA
        390        60       FIXPVA
        391        60       FIXPVA
        392        60       FIXPVA
        393        60       FIXPVA
        394        60       FIXPVA
        395        60       FIXPVA
        396        60       FIXPVA
        397        60       FIXPVA
        398        60       FIXPVA
        399        60       FIXPVA
        400        60       FIXPVA
        401        60       FIXPVA
        402        60       FIXPVA
        403        60       FIXPVA
        404        60       FIXPVA
        405        60       FIXPVA
        406        60       FIXPVA
        407        60       FIXPVA
        408        60       FIXPVA
        409        60       FIXPVA
        410        60       FIXPVA
        411        60       FIXPVA
        412        60       FIXPVA
        413        60       FIXPVA
        414        60       FIXPVA
        415        60       FIXPVA
        416        60       FIXPVA
        417        60       FIXPVA
        418        60       FIXPVA
        419        60       FIXPVA
        420        60       FIXPVA
        421        60       FIXPVA
        422        60       FIXPVA
        423        60       FIXPVA
        424        60       FIXPVA
        425        60       FIXPVA
        426        60       FIXPVA
        427        60       FIXPVA
        428        60       FIXPVA
        429        60       FIXPVA
        430        60       FIXPVA
        431        60       FIXPVA
        432        60       FIXPVA
        433        60       FIXPVA
        434        60       FIXPVA
        435        60       FIXPVA
        436        60       FIXPVA
        437        60       FIXPVA
        438        60       FIXPVA
        439        60       FIXPVA
        440        60       FIXPVA
        441        60       FIXPVA
        442        60       FIXPVA
        443        60       FIXPVA
        444        60       FIXPVA
        445        60       FIXPVA
        446        60       FIXPVA
        447        60       FIXPVA
        448        60       FIXPVA
        449        60       FIXPVA
        450        60       FIXPVA
        451        60       FIXPVA
        452        60       FIXPVA
        453        60       FIXPVA
        454        60       FIXPVA
        455        60       FIXPVA
        456        60       FIXPVA
        457        60       FIXPVA
        458        60       FIXPVA
        459        60       FIXPVA
        460        60       FIXPVA
        461        60       FIXPVA
        462        60       FIXPVA
        463        60       FIXPVA
        464        60       FIXPVA
        465        60       FIXPVA
        466        60       FIXPVA
        467        60       FIXPVA
        468        60       FIXPVA
        469        60       FIXPVA
        470        60       FIXPVA
        471        60       FIXPVA
        472        60       FIXPVA
        473        60       FIXPVA
        474        60       FIXPVA
        475        60       FIXPVA
        476        60       FIXPVA
        477        60       FIXPVA
        478        60       FIXPVA
        479        60       FIXPVA
        480        60       FIXPVA
        481        60       FIXPVA
        482        60       FIXPVA
        483        60       FIXPVA
        484        60       FIXPVA
        485        60       FIXPVA
        486        60       FIXPVA
        487        60       FIXPVA
        488        60       FIXPVA
        489        60       FIXPVA
        490        60       FIXPVA
        491        60       FIXPVA
        492        60       FIXPVA
        493        60       FIXPVA
        494        60       FIXPVA
        495        60       FIXPVA
        496        60       FIXPVA
        497        60       FIXPVA
        498        60       FIXPVA
        499        60       FIXPVA
        500        60       FIXPVA
        501        60       FIXPVA
        502        60       FIXPVA
        503        60       FIXPVA
        504        60       FIXPVA
        505        60       FIXPVA
        506        60       FIXPVA
        507        60       FIXPVA
        508        60       FIXPVA
        509        60       FIXPVA
        510        60       FIXPVA
        511        60       FIXPVA
        512        60       FIXPVA
        513        60       FIXPVA
        514        60       FIXPVA
        515        60       FIXPVA
        516        60       FIXPVA
        517        60       FIXPVA
        518        60       FIXPVA

     ------------------------------
      FIXPVA TESSELLATION FOR PCM
         PEIFENG SU AND HUI LI
     UNIVERSITY OF NEBRASKA-LINCOLN
     ------------------------------


 PCM DIMENSIONS: MXSP=   518, MXTS=     20720, MEMORY=        212901

     INPUT FOR CAVITY DEFINITION 
     ---------------------------
   ATOM               COORDINATES                RADIUS       EPS
      1      3.4820    -54.5980     39.4630      0.0100     78.3900
      2      4.2000    -54.7570     38.8180      1.5900     78.3900
      3      5.2250    -55.4760     39.5200      1.7700     78.3900
      4      4.7820    -56.3850     39.9890      0.0100     78.3900
      5      5.6330    -54.8330     40.3320      0.0100     78.3900
      6      6.3780    -55.9060     38.6100      1.7700     78.3900
      7      7.1680    -56.4250     39.1960      0.0100     78.3900
      8      5.8870    -56.8520     37.6160      1.5900     78.3900
      9      6.5510    -56.6210     36.3860      1.7700     78.3900
     10      7.0180    -57.5860     36.0830      0.0100     78.3900
     11      5.6130    -56.1980     35.3370      1.6800     78.3900
     12      5.8470    -56.2130     33.9870      1.7700     78.3900
     13      7.9410    -56.8640     31.3100      1.6800     78.3900
     14      8.7870    -57.1510     31.7540      0.0100     78.3900
     15      7.9100    -56.8230     30.3080      0.0100     78.3900
     16      6.9850    -56.6030     33.3860      1.6800     78.3900
     17      6.9090    -56.5340     32.0620      1.7700     78.3900
     18      5.7800    -56.1310     31.3950      1.6800     78.3900
     19      5.7990    -56.1230     30.3880      0.0100     78.3900
     20      4.5890    -55.7300     31.9870      1.7700     78.3900
     21      3.6220    -55.3780     31.3060      1.5900     78.3900
     22      4.6730    -55.7770     33.4040      1.7700     78.3900
     23      3.7220    -55.4730     34.3710      1.6800     78.3900
     24      4.3250    -55.7370     35.5070      1.7700     78.3900
     25      3.8840    -55.6270     36.5030      0.0100     78.3900
     26      7.6320    -55.5970     36.6420      1.7700     78.3900
     27      7.8350    -54.9640     35.7550      0.0100     78.3900
     28      8.8180    -56.2540     37.0430      1.5900     78.3900
     29      9.4320    -55.5680     37.3290      0.0100     78.3900
     30      7.0390    -54.7880     37.7870      1.7700     78.3900
     31      6.2210    -54.1230     37.4210      0.0100     78.3900
     32      8.0130    -54.0910     38.5940      1.5900     78.3900
     33      8.4240    -52.6110     38.2420      2.1000     78.3900
     34      7.2030    -51.7910     38.1040      1.5900     78.3900
     35      9.4250    -52.1500     39.2260      1.5900     78.3900
     36      9.1010    -52.6970     36.8310      1.5900     78.3900
     37     10.4000    -53.2750     36.5980      1.7700     78.3900
     38     10.4620    -54.3130     36.9900      0.0100     78.3900
     39     11.1920    -52.6810     37.1150      0.0100     78.3900
     40     10.7250    -53.3190     35.0940      1.7700     78.3900
     41     11.7290    -53.7710     34.9290      0.0100     78.3900
     42      9.7570    -54.1470     34.3690      1.5900     78.3900
     43      9.4550    -53.5360     33.1170      1.7700     78.3900
     44      9.6800    -54.3100     32.3460      0.0100     78.3900
     45      8.0220    -53.1250     33.0000      1.6800     78.3900
     46      7.2670    -52.9070     34.1270      1.7700     78.3900
     47      7.7840    -53.0670     35.0690      0.0100     78.3900
     48      7.4730    -52.9500     31.7450      1.7700     78.3900
     49      8.1120    -53.1070     30.7090      1.5900     78.3900
     50      6.1460    -52.5920     31.7390      1.6800     78.3900
     51      5.7020    -52.4760     30.8360      0.0100     78.3900
     52      5.3240    -52.4010     32.8290      1.7700     78.3900
     53      4.1390    -52.1300     32.6690      1.5900     78.3900
     54      5.9730    -52.5630     34.0920      1.7700     78.3900
     55      5.3860    -52.4420     34.9990      0.0100     78.3900
     56     10.4160    -52.3760     32.9460      1.7700     78.3900
     57      9.9460    -51.5440     32.3980      0.0100     78.3900
     58     11.5880    -52.8030     32.2770      1.5900     78.3900
     59     12.2050    -52.0540     32.2920      0.0100     78.3900
     60     10.7010    -51.9630     34.3870      1.7700     78.3900
     61      9.8350    -51.4020     34.8040      0.0100     78.3900
     62     11.9600    -51.2830     34.5980      1.5900     78.3900
     63     12.0680    -49.7330     34.3290      2.1000     78.3900
     64     10.8480    -49.0760     34.8400      1.5900     78.3900
     65     13.3640    -49.2690     34.8720      1.5900     78.3900
     66     12.1100    -49.6020     32.7620      1.5900     78.3900
     67     11.6660    -48.3860     32.1070      1.7700     78.3900
     68     12.5440    -47.7310     31.9060      0.0100     78.3900
     69     10.9510    -47.7980     32.7330      0.0100     78.3900
     70     10.9480    -48.6950     30.7810      1.7700     78.3900
     71     11.6590    -49.0840     30.0240      0.0100     78.3900
     72      9.9530    -49.7280     31.0120      1.5900     78.3900
     73      8.7440    -49.4130     30.3690      1.7700     78.3900
[...]
   466   15   6.0   0.00    0.0    0.000000    0.713960    0.714771
   467   15   7.0  18.58   36.4   -0.218828   -0.990964   -1.002234
   468   15   1.0   0.00    0.0    0.000000    0.453524    0.453258
   469   15   1.0   0.00    0.0    0.000000    0.457553    0.456179
   470   15   7.0   4.42    8.7    0.077404   -0.744734   -0.751526
   471   15   6.0   0.00    0.0    0.000000    0.980751    0.984823
   472   15   7.0   0.00    0.0   -0.000213   -0.924243   -1.003889
   473   15   1.0   0.00    0.0    0.000000    0.456703    0.520940
   474   15   6.0   0.00    0.0    0.000000    0.898667    0.906133
   475   15   8.0   5.44   11.9    0.135593   -0.765926   -0.740096
   476   15   6.0   0.01    0.0    0.002258   -0.053777   -0.045832
   477   15   7.0   4.65    9.1    0.120224   -0.578599   -0.583849
   478   15   6.0   2.28    4.0    0.009919    0.292325    0.275723
   479   15   1.0   0.00    0.0    0.000000    0.254994    0.285104
   480   15   6.0   0.00    0.0    0.000023    0.138200    0.114678
   481   15   1.0   0.00    0.0    0.000000    0.192155    0.224108
   482   15   8.0  17.53   38.3    0.069490   -0.831985   -0.846634
   483   15   1.0   0.00    0.0    0.000000    0.502701    0.520998
   484   15   6.0   0.49    0.9   -0.010403    0.131522    0.099823
   485   15   1.0   0.00    0.0    0.000000    0.241302    0.247941
   486   15   8.0   3.84    8.4    0.044134   -0.789616   -0.795963
   487   15  15.0  10.48   13.1    0.150049    1.607426    1.647936
   488   15   8.0  13.83   30.2    0.314885   -0.894741   -0.888402
   489   15   8.0  16.10   35.2    0.324900   -0.889881   -0.885084
   490   15   8.0   1.52    3.3    0.025747   -0.984606   -0.795205
   491   16   6.0  11.05   19.5   -0.072165    0.200599   -0.019399
   492   16   1.0   0.00    0.0    0.000000    0.164003    0.174600
   493   16   1.0   0.00    0.0    0.000000    0.242115    0.223311
   494   16   6.0   6.61   11.7   -0.047860    0.089670    0.146440
   495   16   1.0   0.00    0.0    0.000000    0.250430    0.222854
   496   16   8.0   3.75    8.2    0.049087   -0.724530   -0.733022
   497   16   6.0   3.61    6.4   -0.034403    0.415368    0.415562
   498   16   1.0   0.00    0.0    0.000000    0.255769    0.244381
   499   16   7.0   0.00    0.0    0.000000   -0.823910   -0.832134
   500   16   6.0   2.46    4.3   -0.007412    0.196498    0.174139
   501   16   1.0   0.00    0.0    0.000000    0.293842    0.318161
   502   16   6.0   8.26   14.6   -0.046112   -0.389825   -0.399117
   503   16   1.0   0.00    0.0    0.000000    0.276335    0.283961
   504   16   6.0   1.89    3.3   -0.006203    1.062960    1.071169
   505   16   8.0   9.34   20.4    0.136393   -0.799913   -0.770759
   506   16   7.0   1.70    3.3    0.018525   -0.866873   -0.859581
   507   16   6.0   1.89    3.3   -0.002339    0.721866    0.731139
   508   16   7.0  14.38   28.2   -0.075764   -0.946135   -0.995420
   509   16   1.0   0.00    0.0    0.000000    0.462755    0.502459
   510   16   1.0   0.00    0.0    0.000000    0.450490    0.449256
   511   16   6.0   6.76   11.9   -0.060078    0.122622    0.122926
   512   16   1.0   0.00    0.0    0.000000    0.226735    0.227378
   513   16   8.0  20.85   45.6    0.049451   -0.840147   -0.844179
   514   16   1.0   0.00    0.0    0.000000    0.504059    0.505620
   515   16   6.0   5.44    9.6   -0.041477    0.170151    0.151287
   516   16   1.0   0.00    0.0    0.000000    0.215324    0.219263
   517   16   8.0  22.22   48.6   -0.008453   -0.850026   -0.852067
   518   16   1.0   0.00    0.0    0.000000    0.508208    0.508799

 Done with FMO properties.
 CPU     0: STEP CPU TIME=     0.00 TOTAL CPU TIME=      38950.0 (    649.2 MIN)
 TOTAL WALL CLOCK TIME=      87943.5 SECONDS, CPU UTILIZATION IS    44.29%
 CPU     0: STEP CPU TIME=     0.00 TOTAL CPU TIME=      38950.0 (    649.2 MIN)
 TOTAL WALL CLOCK TIME=      87943.5 SECONDS, CPU UTILIZATION IS    44.29%

 Total timing statistics in pairs (CPU,wall) for each rank, sec

    Rank   total     SCF    corr     DFT    CPHF     EFP    solv     ESP    geom
 -------------------------------------------------------------------------------
       1   38950.0   9490.7  14566.9      0.0    0.0   0.0  350.8 13786.3    0.0
       1   87943.6  19942.2  37789.6      0.0    0.0   0.0  884.2 27597.3    0.0
       2   38579.5   9370.7  14569.9      0.0    0.0   0.0  353.9 13542.3    0.0
       2   87943.6  19931.7  37792.9      0.0    0.0   0.0  884.7 27596.1    0.0
       3   39175.3   9414.7  15014.5      0.0    0.0   0.0  351.9 13647.3    0.0
       3   87943.6  19932.0  37792.9      0.0    0.0   0.0  884.7 27596.0    0.0
       4   37563.1   9391.7  13708.7      0.0    0.0   0.0  351.2 13358.9    0.0
       4   87943.6  19932.5  37792.9      0.0    0.0   0.0  883.6 27595.8    0.0
       5   38732.8   9429.8  14342.4      0.0    0.0   0.0  348.1 13870.2    0.0
       5   87943.6  19932.9  37792.8      0.0    0.0   0.0  884.1 27596.0    0.0
       6   39063.3   9344.1  14817.8      0.0    0.0   0.0  346.8 13824.7    0.0
       6   87943.6  19933.5  37792.8      0.0    0.0   0.0  882.3 27595.9    0.0
       7   39342.4   9431.0  15154.8      0.0    0.0   0.0  346.1 13661.7    0.0
       7   87943.6  19934.0  37792.8      0.0    0.0   0.0  882.7 27595.9    0.0
       8   37973.7   9355.9  14429.2      0.0    0.0   0.0  346.7 13107.6    0.0
       8   87943.6  19934.0  37792.8      0.0    0.0   0.0  881.4 27595.9    0.0
       9   38632.0   9384.9  14283.1      0.0    0.0   0.0  343.1 13891.9    0.0
       9   87943.6  19933.0  37792.8      0.0    0.0   0.0  883.0 27596.6    0.0
      10   38143.1   9320.3  14082.6      0.0    0.0   0.0  346.4 13652.3    0.0
      10   87943.6  19932.9  37792.8      0.0    0.0   0.0  882.2 27596.5    0.0
      11   38776.3   9369.4  14842.2      0.0    0.0   0.0  342.8 13503.2    0.0
      11   87943.6  19934.7  37792.8      0.0    0.0   0.0  881.0 27596.5    0.0
      12   37538.6   9366.8  13622.1      0.0    0.0   0.0  343.6 13479.1    0.0
      12   87943.6  19933.9  37792.8      0.0    0.0   0.0  880.5 27596.5    0.0
      13   39102.0   9383.5  15246.8      0.0    0.0   0.0  340.8 13393.2    0.0
      13   87943.6  19935.0  37792.8      0.0    0.0   0.0  881.0 27596.4    0.0
      14   38745.7   9387.7  14895.2      0.0    0.0   0.0  342.3 13381.3    0.0
      14   87943.6  19934.3  37792.8      0.0    0.0   0.0  880.6 27596.3    0.0
      15   37336.2   9364.3  13682.1      0.0    0.0   0.0  340.9 13205.1    0.0
      15   87943.6  19934.7  37792.7      0.0    0.0   0.0  880.1 27596.3    0.0
      16   37436.6   9291.5  14132.9      0.0    0.0   0.0  343.3 12938.4    0.0
      16   87943.6  19934.6  37792.7      0.0    0.0   0.0  879.4 27596.2    0.0
averaged   38443.2   9381.1  14462.0      0.0    0.0   0.0  346.2 13515.2    0.0
averaged   87943.6  19934.1  37792.6      0.0    0.0   0.0  882.2 27596.3    0.0

  FMO  timing statistics in pairs (CPU,wall) for each rank, sec

    Rank  FMOini FMOscf1  FMOdm1 FMOsyn1 FMOscf2  FMOes2 FMOsyn2 FMOscf3 FMOsyn3
 -------------------------------------------------------------------------------
       1    3.4   13335.3    0.5    0.0   25063.4     547.4    0.0    0.0    0.0
       1    9.0   27600.1    4.4    0.0   59205.9    1123.7    0.0    0.0    0.0
       2    2.5   13273.8    0.2    0.0   24763.6     539.4    0.0    0.0    0.0
       2    9.0   27600.1    4.4    0.0   59216.5    1113.1    0.0    0.0    0.0
       3    2.8   13398.4    0.2    0.0   25228.6     545.3    0.0    0.0    0.0
       3    9.0   27600.1    4.4    0.0   59214.3    1115.3    0.0    0.0    0.0
       4    2.5   13220.9    0.1    0.0   23786.9     552.7    0.0    0.0    0.0
       4    9.0   27600.1    4.4    0.0   59217.8    1111.9    0.0    0.0    0.0
       5    3.0   13488.7    0.3    0.0   24698.9     541.9    0.0    0.0    0.0
       5    9.0   27600.1    4.4    0.0   59219.5    1110.1    0.0    0.0    0.0
       6    2.6   13372.7    0.1    0.0   25153.8     534.0    0.0    0.0    0.0
       6    9.0   27600.1    4.4    0.0   59218.7    1110.9    0.0    0.0    0.0
       7    2.8   13321.0    0.2    0.0   25469.0     549.4    0.0    0.0    0.0
       7    9.0   27600.1    4.4    0.0   59216.2    1113.4    0.0    0.0    0.0
       8    2.4   13095.3    0.1    0.0   24337.4     538.5    0.0    0.0    0.0
       8    9.0   27600.1    4.4    0.0   59221.5    1108.2    0.0    0.0    0.0
       9    3.0   13554.0    0.4    0.0   24543.5     531.2    0.0    0.0    0.0
       9    9.0   27600.1    4.4    0.0   59216.0    1113.6    0.0    0.0    0.0
      10    2.4   13343.7    0.1    0.0   24250.5     546.4    0.0    0.0    0.0
      10    9.0   27600.1    4.4    0.0   59216.0    1113.7    0.0    0.0    0.0
      11    2.5   13340.9    0.2    0.0   24908.8     523.9    0.0    0.0    0.0
      11    9.0   27600.1    4.4    0.0   59215.6    1114.0    0.0    0.0    0.0
      12    2.3   13285.3    0.1    0.0   23717.6     533.3    0.0    0.0    0.0
      12    9.0   27600.1    4.4    0.0   59213.8    1115.8    0.0    0.0    0.0
      13    2.7   13234.0    0.3    0.0   25321.1     543.8    0.0    0.0    0.0
      13    9.0   27600.1    4.4    0.0   59215.9    1113.7    0.0    0.0    0.0
      14    2.3   13284.7    0.1    0.0   24911.5     547.2    0.0    0.0    0.0
      14    9.0   27600.1    4.4    0.0   59214.9    1114.7    0.0    0.0    0.0
      15    2.5   13080.8    0.2    0.0   23700.2     552.5    0.0    0.0    0.0
      15    9.0   27600.1    4.4    0.0   59215.4    1114.2    0.0    0.0    0.0
      16    2.3   12996.4    0.1    0.0   23899.2     538.6    0.0    0.0    0.0
      16    9.0   27600.1    4.4    0.0   59217.2    1112.4    0.0    0.0    0.0
averaged    2.6   13289.1    0.2    0.0   24609.6     541.6    0.0    0.0    0.0
averaged    9.0   27600.1    4.4    0.0   59215.9    1113.7    0.0    0.0    0.0
             62803471  WORDS OF DYNAMIC MEMORY USED
 EXECUTION OF GAMESS TERMINATED NORMALLY Sun Dec  8 08:48:35 2019
 DDI: 263640 bytes (0.3 MB / 0 MWords) used by master data server.

 ----------------------------------------
 CPU timing information for all processes
 ========================================
 0: 38086.678 + 863.295 = 38949.973
 1: 37759.331 + 820.233 = 38579.564
 2: 38294.308 + 881.53 = 39175.362
 3: 36806.72 + 757.87 = 37563.159
 4: 37891.572 + 841.274 = 38732.846
 5: 38253.832 + 809.520 = 39063.352
 6: 38472.146 + 870.315 = 39342.461
 7: 37168.880 + 804.891 = 37973.771
 8: 37792.07 + 840.67 = 38632.75
 9: 37366.621 + 776.519 = 38143.141
 10: 37933.140 + 843.218 = 38776.358
 11: 36781.698 + 756.970 = 37538.669
 12: 38228.972 + 873.57 = 39102.30
 13: 37926.881 + 818.876 = 38745.757
 14: 36561.259 + 775.13 = 37336.272
 15: 36654.363 + 782.261 = 37436.624
 ----------------------------------------
 ddikick.x: exited gracefully.
unset echo
----- accounting info -----
Files used on the master node gollum080.lsa.umich.edu were:
-rw-r--r-- 1 hazwong frank    25667 Dec  7 08:22 /scratch/hazwong/824956/28SR_3/usrc/28SR_3_fmo_input.F05
-rw-r--r-- 1 hazwong frank      634 Dec  8 08:48 /scratch/hazwong/824956/28SR_3/usrc/28SR_3_fmo_input.F06.001
-rw-r--r-- 1 hazwong frank      634 Dec  8 08:48 /scratch/hazwong/824956/28SR_3/usrc/28SR_3_fmo_input.F06.002
-rw-r--r-- 1 hazwong frank      634 Dec  8 08:48 /scratch/hazwong/824956/28SR_3/usrc/28SR_3_fmo_input.F06.003
-rw-r--r-- 1 hazwong frank      634 Dec  8 08:48 /scratch/hazwong/824956/28SR_3/usrc/28SR_3_fmo_input.F06.004
-rw-r--r-- 1 hazwong frank      634 Dec  8 08:48 /scratch/hazwong/824956/28SR_3/usrc/28SR_3_fmo_input.F06.005
-rw-r--r-- 1 hazwong frank      634 Dec  8 08:48 /scratch/hazwong/824956/28SR_3/usrc/28SR_3_fmo_input.F06.006
-rw-r--r-- 1 hazwong frank      634 Dec  8 08:48 /scratch/hazwong/824956/28SR_3/usrc/28SR_3_fmo_input.F06.007
-rw-r--r-- 1 hazwong frank      634 Dec  8 08:48 /scratch/hazwong/824956/28SR_3/usrc/28SR_3_fmo_input.F06.008
-rw-r--r-- 1 hazwong frank      634 Dec  8 08:48 /scratch/hazwong/824956/28SR_3/usrc/28SR_3_fmo_input.F06.009
-rw-r--r-- 1 hazwong frank      634 Dec  8 08:48 /scratch/hazwong/824956/28SR_3/usrc/28SR_3_fmo_input.F06.010
-rw-r--r-- 1 hazwong frank      634 Dec  8 08:48 /scratch/hazwong/824956/28SR_3/usrc/28SR_3_fmo_input.F06.011
-rw-r--r-- 1 hazwong frank      634 Dec  8 08:48 /scratch/hazwong/824956/28SR_3/usrc/28SR_3_fmo_input.F06.012
-rw-r--r-- 1 hazwong frank      634 Dec  8 08:48 /scratch/hazwong/824956/28SR_3/usrc/28SR_3_fmo_input.F06.013
-rw-r--r-- 1 hazwong frank      634 Dec  8 08:48 /scratch/hazwong/824956/28SR_3/usrc/28SR_3_fmo_input.F06.014
-rw-r--r-- 1 hazwong frank      634 Dec  8 08:48 /scratch/hazwong/824956/28SR_3/usrc/28SR_3_fmo_input.F06.015
-rw-r--r-- 1 hazwong frank    21906 Dec  8 08:48 /scratch/hazwong/824956/28SR_3/usrc/28SR_3_fmo_input.F07
-rw-r--r-- 1 hazwong frank        0 Dec  7 08:22 /scratch/hazwong/824956/28SR_3/usrc/28SR_3_fmo_input.F07.001
-rw-r--r-- 1 hazwong frank        0 Dec  7 08:22 /scratch/hazwong/824956/28SR_3/usrc/28SR_3_fmo_input.F07.002
-rw-r--r-- 1 hazwong frank        0 Dec  7 08:22 /scratch/hazwong/824956/28SR_3/usrc/28SR_3_fmo_input.F07.003
-rw-r--r-- 1 hazwong frank        0 Dec  7 08:22 /scratch/hazwong/824956/28SR_3/usrc/28SR_3_fmo_input.F07.004
-rw-r--r-- 1 hazwong frank        0 Dec  7 08:22 /scratch/hazwong/824956/28SR_3/usrc/28SR_3_fmo_input.F07.005
-rw-r--r-- 1 hazwong frank        0 Dec  7 08:22 /scratch/hazwong/824956/28SR_3/usrc/28SR_3_fmo_input.F07.006
-rw-r--r-- 1 hazwong frank        0 Dec  7 08:22 /scratch/hazwong/824956/28SR_3/usrc/28SR_3_fmo_input.F07.007
-rw-r--r-- 1 hazwong frank        0 Dec  7 08:22 /scratch/hazwong/824956/28SR_3/usrc/28SR_3_fmo_input.F07.008
-rw-r--r-- 1 hazwong frank        0 Dec  7 08:22 /scratch/hazwong/824956/28SR_3/usrc/28SR_3_fmo_input.F07.009
-rw-r--r-- 1 hazwong frank        0 Dec  7 08:22 /scratch/hazwong/824956/28SR_3/usrc/28SR_3_fmo_input.F07.010
-rw-r--r-- 1 hazwong frank        0 Dec  7 08:22 /scratch/hazwong/824956/28SR_3/usrc/28SR_3_fmo_input.F07.011
-rw-r--r-- 1 hazwong frank        0 Dec  7 08:22 /scratch/hazwong/824956/28SR_3/usrc/28SR_3_fmo_input.F07.012
-rw-r--r-- 1 hazwong frank        0 Dec  7 08:22 /scratch/hazwong/824956/28SR_3/usrc/28SR_3_fmo_input.F07.013
-rw-r--r-- 1 hazwong frank        0 Dec  7 08:22 /scratch/hazwong/824956/28SR_3/usrc/28SR_3_fmo_input.F07.014
-rw-r--r-- 1 hazwong frank        0 Dec  7 08:22 /scratch/hazwong/824956/28SR_3/usrc/28SR_3_fmo_input.F07.015
-rw-r--r-- 1 hazwong frank    65440 Dec  8 08:48 /scratch/hazwong/824956/28SR_3/usrc/28SR_3_fmo_input.F10.000
-rw-r--r-- 1 hazwong frank        0 Dec  7 08:22 /scratch/hazwong/824956/28SR_3/usrc/28SR_3_fmo_input.F26.000
-rw-r--r-- 1 hazwong frank        0 Dec  7 08:22 /scratch/hazwong/824956/28SR_3/usrc/28SR_3_fmo_input.F26.001
-rw-r--r-- 1 hazwong frank        0 Dec  7 08:22 /scratch/hazwong/824956/28SR_3/usrc/28SR_3_fmo_input.F26.002
-rw-r--r-- 1 hazwong frank        0 Dec  7 08:22 /scratch/hazwong/824956/28SR_3/usrc/28SR_3_fmo_input.F26.003
-rw-r--r-- 1 hazwong frank        0 Dec  7 08:22 /scratch/hazwong/824956/28SR_3/usrc/28SR_3_fmo_input.F26.004
-rw-r--r-- 1 hazwong frank        0 Dec  7 08:22 /scratch/hazwong/824956/28SR_3/usrc/28SR_3_fmo_input.F26.005
-rw-r--r-- 1 hazwong frank        0 Dec  7 08:22 /scratch/hazwong/824956/28SR_3/usrc/28SR_3_fmo_input.F26.006
-rw-r--r-- 1 hazwong frank        0 Dec  7 08:22 /scratch/hazwong/824956/28SR_3/usrc/28SR_3_fmo_input.F26.007
-rw-r--r-- 1 hazwong frank        0 Dec  7 08:22 /scratch/hazwong/824956/28SR_3/usrc/28SR_3_fmo_input.F26.008
-rw-r--r-- 1 hazwong frank        0 Dec  7 08:22 /scratch/hazwong/824956/28SR_3/usrc/28SR_3_fmo_input.F26.009
-rw-r--r-- 1 hazwong frank        0 Dec  7 08:22 /scratch/hazwong/824956/28SR_3/usrc/28SR_3_fmo_input.F26.010
-rw-r--r-- 1 hazwong frank        0 Dec  7 08:22 /scratch/hazwong/824956/28SR_3/usrc/28SR_3_fmo_input.F26.011
-rw-r--r-- 1 hazwong frank        0 Dec  7 08:22 /scratch/hazwong/824956/28SR_3/usrc/28SR_3_fmo_input.F26.012
-rw-r--r-- 1 hazwong frank        0 Dec  7 08:22 /scratch/hazwong/824956/28SR_3/usrc/28SR_3_fmo_input.F26.013
-rw-r--r-- 1 hazwong frank        0 Dec  7 08:22 /scratch/hazwong/824956/28SR_3/usrc/28SR_3_fmo_input.F26.014
-rw-r--r-- 1 hazwong frank        0 Dec  7 08:22 /scratch/hazwong/824956/28SR_3/usrc/28SR_3_fmo_input.F26.015
-rw-r--r-- 1 hazwong frank        0 Dec  7 08:22 /scratch/hazwong/824956/28SR_3/usrc/28SR_3_fmo_input.F27.000
-rw-r--r-- 1 hazwong frank        0 Dec  7 08:22 /scratch/hazwong/824956/28SR_3/usrc/28SR_3_fmo_input.F27.001
-rw-r--r-- 1 hazwong frank        0 Dec  7 08:22 /scratch/hazwong/824956/28SR_3/usrc/28SR_3_fmo_input.F27.002
-rw-r--r-- 1 hazwong frank        0 Dec  7 08:22 /scratch/hazwong/824956/28SR_3/usrc/28SR_3_fmo_input.F27.003
-rw-r--r-- 1 hazwong frank        0 Dec  7 08:22 /scratch/hazwong/824956/28SR_3/usrc/28SR_3_fmo_input.F27.004
-rw-r--r-- 1 hazwong frank        0 Dec  7 08:22 /scratch/hazwong/824956/28SR_3/usrc/28SR_3_fmo_input.F27.005
-rw-r--r-- 1 hazwong frank        0 Dec  7 08:22 /scratch/hazwong/824956/28SR_3/usrc/28SR_3_fmo_input.F27.006
-rw-r--r-- 1 hazwong frank        0 Dec  7 08:22 /scratch/hazwong/824956/28SR_3/usrc/28SR_3_fmo_input.F27.007
-rw-r--r-- 1 hazwong frank        0 Dec  7 08:22 /scratch/hazwong/824956/28SR_3/usrc/28SR_3_fmo_input.F27.008
-rw-r--r-- 1 hazwong frank        0 Dec  7 08:22 /scratch/hazwong/824956/28SR_3/usrc/28SR_3_fmo_input.F27.009
-rw-r--r-- 1 hazwong frank        0 Dec  7 08:22 /scratch/hazwong/824956/28SR_3/usrc/28SR_3_fmo_input.F27.010
-rw-r--r-- 1 hazwong frank        0 Dec  7 08:22 /scratch/hazwong/824956/28SR_3/usrc/28SR_3_fmo_input.F27.011
-rw-r--r-- 1 hazwong frank        0 Dec  7 08:22 /scratch/hazwong/824956/28SR_3/usrc/28SR_3_fmo_input.F27.012
-rw-r--r-- 1 hazwong frank        0 Dec  7 08:22 /scratch/hazwong/824956/28SR_3/usrc/28SR_3_fmo_input.F27.013
-rw-r--r-- 1 hazwong frank        0 Dec  7 08:22 /scratch/hazwong/824956/28SR_3/usrc/28SR_3_fmo_input.F27.014
-rw-r--r-- 1 hazwong frank        0 Dec  7 08:22 /scratch/hazwong/824956/28SR_3/usrc/28SR_3_fmo_input.F27.015
-rw-r--r-- 1 hazwong frank 33538048 Dec  7 16:03 /scratch/hazwong/824956/28SR_3/usrc/28SR_3_fmo_input.F40.000
-rw-r--r-- 1 hazwong frank 33538048 Dec  7 16:03 /scratch/hazwong/824956/28SR_3/usrc/28SR_3_fmo_input.F40.001
-rw-r--r-- 1 hazwong frank 33538048 Dec  7 16:03 /scratch/hazwong/824956/28SR_3/usrc/28SR_3_fmo_input.F40.002
-rw-r--r-- 1 hazwong frank 33538048 Dec  7 16:03 /scratch/hazwong/824956/28SR_3/usrc/28SR_3_fmo_input.F40.003
-rw-r--r-- 1 hazwong frank 33538048 Dec  7 16:03 /scratch/hazwong/824956/28SR_3/usrc/28SR_3_fmo_input.F40.004
-rw-r--r-- 1 hazwong frank 33538048 Dec  7 16:03 /scratch/hazwong/824956/28SR_3/usrc/28SR_3_fmo_input.F40.005
-rw-r--r-- 1 hazwong frank 33538048 Dec  7 16:03 /scratch/hazwong/824956/28SR_3/usrc/28SR_3_fmo_input.F40.006
-rw-r--r-- 1 hazwong frank 33538048 Dec  7 16:03 /scratch/hazwong/824956/28SR_3/usrc/28SR_3_fmo_input.F40.007
-rw-r--r-- 1 hazwong frank 33538048 Dec  7 16:03 /scratch/hazwong/824956/28SR_3/usrc/28SR_3_fmo_input.F40.008
-rw-r--r-- 1 hazwong frank 33538048 Dec  7 16:03 /scratch/hazwong/824956/28SR_3/usrc/28SR_3_fmo_input.F40.009
-rw-r--r-- 1 hazwong frank 33538048 Dec  7 16:03 /scratch/hazwong/824956/28SR_3/usrc/28SR_3_fmo_input.F40.010
-rw-r--r-- 1 hazwong frank 33538048 Dec  7 16:03 /scratch/hazwong/824956/28SR_3/usrc/28SR_3_fmo_input.F40.011
-rw-r--r-- 1 hazwong frank 33538048 Dec  7 16:03 /scratch/hazwong/824956/28SR_3/usrc/28SR_3_fmo_input.F40.012
-rw-r--r-- 1 hazwong frank 33538048 Dec  7 16:03 /scratch/hazwong/824956/28SR_3/usrc/28SR_3_fmo_input.F40.013
-rw-r--r-- 1 hazwong frank 33538048 Dec  7 16:03 /scratch/hazwong/824956/28SR_3/usrc/28SR_3_fmo_input.F40.014
-rw-r--r-- 1 hazwong frank 33538048 Dec  7 16:03 /scratch/hazwong/824956/28SR_3/usrc/28SR_3_fmo_input.F40.015
ls: No match.
ls: No match.
ls: No match.
Sun Dec  8 08:48:38 EST 2019
0.187u 0.100s 24:25:47.03 0.0%	0+0k 1280+184io 19pf+0w
