‘28SR_2_fmo_input.inp’ -> ‘/scratch/hazwong/824951/./28SR_2_fmo_input.inp’
‘rungms’ -> ‘/scratch/hazwong/824951/./rungms’
‘gms-files.csh’ -> ‘/scratch/hazwong/824951/./gms-files.csh’
----- GAMESS execution script 'rungms' -----
This job is running on host gollum088.lsa.umich.edu
under operating system Linux at Sat Dec 7 08:17:52 EST 2019
Available scratch disk space (Kbyte units) at beginning of the job is
Filesystem     1K-blocks   Used Available Use% Mounted on
/dev/sda4      426933580 570936 426362644   1% /scratch
GAMESS temporary binary files will be written to /scratch/hazwong/824951/28SR_2/usrc
GAMESS supplementary output files will be written to /scratch/hazwong/824951/28SR_2/src
Copying input file 28SR_2_fmo_input.inp to your run's scratch directory...
cp 28SR_2_fmo_input.inp /scratch/hazwong/824951/28SR_2/usrc/28SR_2_fmo_input.F05
unset echo
This is a GDDI run, keeping various output files on local disks
setenv OUTPUT /scratch/hazwong/824951/28SR_2/usrc/28SR_2_fmo_input.F06
setenv PUNCH /scratch/hazwong/824951/28SR_2/usrc/28SR_2_fmo_input.F07
unset echo
 
Assuming a single but multicore node.
 
/export/apps/CentOS7/gamess/src/build//ddikick.x /export/apps/CentOS7/gamess/src/build//gamess.R3.x 28SR_2_fmo_input -ddi 1 16 gollum088.lsa.umich.edu:cpus=16 -scr /scratch/hazwong/824951/28SR_2/usrc

 Distributed Data Interface kickoff program.
 Initiating 16 compute processes on 1 nodes to run the following command:
 /export/apps/CentOS7/gamess/src/build//gamess.R3.x 28SR_2_fmo_input 

          ******************************************************
          *         GAMESS VERSION = 30 SEP 2018 (R3)         *
          *             FROM IOWA STATE UNIVERSITY             *
          * M.W.SCHMIDT, K.K.BALDRIDGE, J.A.BOATZ, S.T.ELBERT, *
          *   M.S.GORDON, J.H.JENSEN, S.KOSEKI, N.MATSUNAGA,   *
          *          K.A.NGUYEN, S.J.SU, T.L.WINDUS,           *
          *       TOGETHER WITH M.DUPUIS, J.A.MONTGOMERY       *
          *         J.COMPUT.CHEM.  14, 1347-1363(1993)        *
          **************** 64 BIT LINUX VERSION ****************

  SINCE 1993, STUDENTS AND POSTDOCS WORKING AT IOWA STATE UNIVERSITY
  AND ALSO IN THEIR VARIOUS JOBS AFTER LEAVING ISU HAVE MADE IMPORTANT
  CONTRIBUTIONS TO THE CODE:
     IVANA ADAMOVIC, CHRISTINE AIKENS, YURI ALEXEEV, POOJA ARORA,
     ANDREY ASADCHEV, ROB BELL, PRADIPTA BANDYOPADHYAY, JONATHAN BENTZ,
     BRETT BODE, KURT BRORSEN, CALEB CARLIN, GALINA CHABAN, WEI CHEN,
     CHEOL HO CHOI, PAUL DAY, ALBERT DEFUSCO, NUWAN DESILVA, TIM DUDLEY,
     DMITRI FEDOROV, ALEX FINDLATER, GRAHAM FLETCHER, MARK FREITAG,
     KURT GLAESEMANN, ANASTASIA GUNINA,
     DAN KEMP, GRANT MERRILL, NORIYUKI MINEZAWA, JONATHAN MULLIN,
     TAKESHI NAGATA, SEAN NEDD, HEATHER NETZLOFF, BOSILJKA NJEGIC, RYAN OLSON,
     MIKE PAK, BUU PHAM,
     SPENCER PRUITT, LUKE ROSKOP, JIM SHOEMAKER, LYUDMILA SLIPCHENKO,
     TONY SMITH, SAROM SOK LEANG, JIE SONG, TETSUYA TAKETSUGU, SIMON WEBB,
     PENG XU, SOOHAENG YOO, FEDERICO ZAHARIEV

  ADDITIONAL CODE HAS BEEN PROVIDED BY COLLABORATORS IN OTHER GROUPS:
     IOWA STATE UNIVERSITY:
          JOE IVANIC, AARON WEST, LAIMUTIS BYTAUTAS, KLAUS RUEDENBERG
     UNIVERSITY OF TOKYO: KIMIHIKO HIRAO, TAKAHITO NAKAJIMA,
          TAKAO TSUNEDA, MUNEAKI KAMIYA, SUSUMU YANAGISAWA,
          KIYOSHI YAGI, MAHITO CHIBA, SEIKEN TOKURA, NAOAKI KAWAKAMI
     UNIVERSITY OF AARHUS: FRANK JENSEN
     UNIVERSITY OF IOWA: VISVALDAS KAIRYS, HUI LI
     NATIONAL INST. OF STANDARDS AND TECHNOLOGY: WALT STEVENS, DAVID GARMER
     UNIVERSITY OF PISA: BENEDETTA MENNUCCI, JACOPO TOMASI
     UNIVERSITY OF MEMPHIS: HENRY KURTZ, PRAKASHAN KORAMBATH
     UNIVERSITY OF ALBERTA: TOBY ZENG, MARIUSZ KLOBUKOWSKI
     UNIVERSITY OF NEW ENGLAND: MARK SPACKMAN
     MIE UNIVERSITY: HIROAKI UMEDA
     NAT. INST. OF ADVANCED INDUSTRIAL SCIENCE AND TECHNOLOGY: KAZUO KITAURA
     MICHIGAN STATE UNIVERSITY:
          KAROL KOWALSKI, MARTA WLOCH, JEFFREY GOUR, JESSE LUTZ,
          WEI LI, JUN SHEN, J. EMILIANO DEUSTUA, PIOTR PIECUCH
     UNIVERSITY OF MINNESOTA:
          YINAN SHU
     UNIVERSITY OF SILESIA: MONIKA MUSIAL, STANISLAW KUCHARSKI
     FACULTES UNIVERSITAIRES NOTRE-DAME DE LA PAIX:
          OLIVIER QUINET, BENOIT CHAMPAGNE
     UNIVERSITY OF CALIFORNIA - SANTA BARBARA: BERNARD KIRTMAN
     INSTITUTE FOR MOLECULAR SCIENCE:
          KAZUYA ISHIMURA, MICHIO KATOUDA, AND SHIGERU NAGASE
     UNIVERSITY OF NOTRE DAME: ANNA POMOGAEVA, DAN CHIPMAN
     KYUSHU UNIVERSITY:
          HARUYUKI NAKANO,
          FENG LONG GU, JACEK KORCHOWIEC, MARCIN MAKOWSKI, AND YURIKO AOKI,
          HIROTOSHI MORI AND EISAKU MIYOSHI
     PENNSYLVANIA STATE UNIVERSITY:
          TZVETELIN IORDANOV, CHET SWALINA, JONATHAN SKONE,
          SHARON HAMMES-SCHIFFER
     WASEDA UNIVERSITY:
          MASATO KOBAYASHI, TOMOKO AKAMA, TSUGUKI TOUMA,
          TAKESHI YOSHIKAWA, YASUHIRO IKABATA, JUNJI SEINO,
          YUYA NAKAJIMA, HIROMI NAKAI
     NANJING UNIVERSITY: SHUHUA LI
     UNIVERSITY OF NEBRASKA:
          PEIFENG SU, DEJUN SI, NANDUN THELLAMUREGE, YALI WANG, HUI LI
     UNIVERSITY OF ZURICH: ROBERTO PEVERATI, KIM BALDRIDGE
     N. COPERNICUS UNIVERSITY AND JACKSON STATE UNIVERSITY:
          MARIA BARYSZ
     UNIVERSITY OF COPENHAGEN: Jimmy Kromann, CASPER STEINMANN
     TOKYO INSTITUTE OF TECHNOLOGY: HIROYA NAKATA
     NAGOYA UNIVERSITY: YOSHIO NISHIMOTO, STEPHAN IRLE
     MOSCOW STATE UNIVERSITY: VLADIMIR MIRONOV


 PARALLEL VERSION RUNNING ON       16 PROCESSORS IN        1 NODES.

 EXECUTION OF GAMESS BEGUN Sat Dec  7 08:17:52 2019

            ECHO OF THE FIRST FEW INPUT CARDS -
 INPUT CARD>!*** FMO 5.3 (Gamess) INPUT generated by Facio 22.1.1.32 ***                    
 INPUT CARD> $CONTRL RUNTYP=ENERGY NPRINT=-5 ISPHER=1 MAXIT=200 $END                        
 INPUT CARD> $SYSTEM MWORDS=63 MEMDDI=63 $END                                               
 INPUT CARD> $GDDI NGROUP=1 $END                                                            
 INPUT CARD> $SCF DIRSCF=.TRUE. NPUNCH=0 $END                                               
 INPUT CARD>!*** NumCPU : 2  MemPerNode : 512MB                                             
 INPUT CARD> $PCM SOLVNT=WATER IEF=-10 ICOMP=2 ICAV=1 IDISP=1 IFMO=-1 $END                  
 INPUT CARD> $PCMCAV RADII=SUAHF $END                                                       
 INPUT CARD> $TESCAV NTSALL=60 $END                                                         
 INPUT CARD> $FMOPRP                                                                        
 INPUT CARD>    NAODIR=200                                                                  
 INPUT CARD>    NGRFMO(1)=1, 1, 0, 0, 0,   0, 0, 0, 0, 0                                    
 INPUT CARD>    IPIEDA=1                                                                    
 INPUT CARD>    NPRINT=9                                                                    
 INPUT CARD> $END                                                                           
 INPUT CARD> $FMO                                                                           
 INPUT CARD>      SCFTYP(1)=RHF                                                             
 INPUT CARD>      MODGRD=10                                                                 
 INPUT CARD>      MODMUL=0                                                                  
 INPUT CARD>      MAXCAO=5                                                                  
 INPUT CARD>      MAXBND=18                                                                 
 INPUT CARD>      NLAYER=1                                                                  
 INPUT CARD>      MPLEVL(1)=2                                                               
 INPUT CARD>      NFRAG=16                                                                  
 INPUT CARD>      ICHARG(1)=-1, -1, -1, -1, -1, -1, -1, 0, -1, -1, -1, -1, -1, -1,          
 INPUT CARD>-1, 0                                                                           
 INPUT CARD>      FRGNAM(1)=F1, F2, F3, F4, F5, F6, F7, F8, F9, F10, F11, F12, F13,         
 INPUT CARD>F14, F15, F16                                                                   
 INPUT CARD>      indat(1)=0                                                                
 INPUT CARD>               1   -36   0                                                      
 INPUT CARD>               37   -66   0                                                     
 INPUT CARD>               67   -97   0                                                     
 INPUT CARD>               98   -130   0                                                    
 INPUT CARD>               131   -164   0                                                   
 INPUT CARD>               165   -198   0                                                   
 INPUT CARD>               199   -228   0                                                   
 INPUT CARD>               229   -258   0                                                   
 INPUT CARD>               259   -292   0                                                   
 INPUT CARD>               293   -325   0                                                   
 INPUT CARD>               326   -358   0                                                   
 INPUT CARD>               359   -392   0                                                   
 INPUT CARD>               393   -423   0                                                   
 INPUT CARD>               424   -456   0                                                   
 INPUT CARD>               457   -490   0                                                   
 INPUT CARD>               491   -518   0                                                   
 INPUT CARD> $END                                                                           
 INPUT CARD>                                                                                
 INPUT CARD> $FMOBND                                                                        
 INPUT CARD>   -37   36       6-31G*    MINI                                                
 INPUT CARD>   -67   66       6-31G*    MINI                                                


 -------------------------------------------------------------
 GROUP DDI, PROGRAMMED BY: RYAN M. OLSON AND DMITRI G. FEDOROV
        FEDOROV ET AL., J. COMPUT. CHEM., 25 (2004) 872.
 -------------------------------------------------------------

 -------------------------------------------------------
 GDDI: INITIALIZATION COMPLETED FOR GROUP     1 OF     1
 WITH    16 PROCESSES BALTYP=DLB   global rank=        0
 -------------------------------------------------------

   63000000 WORDS OF MEMORY AVAILABLE


     RUN TITLE
     ---------
  FMO calculation                                                                

 THE POINT GROUP OF THE MOLECULE IS C1      
 THE ORDER OF THE PRINCIPAL AXIS IS     0

 ATOM   ATOMIC CHARGE
 H.1-1       1.0
 O.1-1       8.0
 C.1-1       6.0
 N.1-1       7.0
 P.1-1      15.0

     ATOMIC BASIS SET LIBRARY
     ----------------
 THE CONTRACTED PRIMITIVE FUNCTIONS HAVE BEEN UNNORMALIZED
 THE CONTRACTED BASIS FUNCTIONS ARE NOW NORMALIZED TO UNITY

  SHELL TYPE  PRIMITIVE        EXPONENT          CONTRACTION COEFFICIENT(S)

 H.1-1     

      1   S       1            18.7311370    0.033494604338
      1   S       2             2.8253944    0.234726953484
      1   S       3             0.6401217    0.813757326146

      2   S       4             0.1612778    1.000000000000

 O.1-1     

      3   S       5          5484.6716600    0.001831074430
      3   S       6           825.2349460    0.013950172200
      3   S       7           188.0469580    0.068445078098
      3   S       8            52.9645000    0.232714335992
      3   S       9            16.8975704    0.470192897984
      3   S      10             5.7996353    0.358520852987

      4   L      11            15.5396162   -0.110777549525    0.070874268231
      4   L      12             3.5999336   -0.148026262701    0.339752839147
      4   L      13             1.0137618    1.130767015354    0.727158577316

      5   L      14             0.2700058    1.000000000000    1.000000000000

      6   D      15             0.8000000    1.000000000000

 C.1-1     

      7   S      16          3047.5248800    0.001834737132
      7   S      17           457.3695180    0.014037322813
      7   S      18           103.9486850    0.068842622264
      7   S      19            29.2101553    0.232184443216
      7   S      20             9.2866630    0.467941348435
      7   S      21             3.1639270    0.362311985337

      8   L      22             7.8682723   -0.119332419775    0.068999066591
      8   L      23             1.8812885   -0.160854151696    0.316423960957
      8   L      24             0.5442493    1.143456437840    0.744308290898

      9   L      25             0.1687145    1.000000000000    1.000000000000

     10   D      26             0.8000000    1.000000000000

 N.1-1     

     11   S      27          4173.5114600    0.001834772160
     11   S      28           627.4579110    0.013994627002
     11   S      29           142.9020930    0.068586551812
     11   S      30            40.2343293    0.232240873040
     11   S      31            12.8202129    0.469069948082
     11   S      32             4.3904370    0.360455199063

     12   L      33            11.6263619   -0.114961181702    0.067579743878
     12   L      34             2.7162798   -0.169117478561    0.323907295893
     12   L      35             0.7722184    1.145851947027    0.740895139755

     13   L      36             0.2120315    1.000000000000    1.000000000000

     14   D      37             0.8000000    1.000000000000

 P.1-1     

     15   S      38         19413.3000000    0.001851598923
     15   S      39          2909.4200000    0.014206191735
     15   S      40           661.3640000    0.069999459277
     15   S      41           185.7590000    0.240078860331
     15   S      42            59.1943000    0.484761717984
     15   S      43            20.0310000    0.335199804993

     16   L      44           339.4780000   -0.002782170105    0.004564616191
     16   L      45            81.0101000   -0.036049901354    0.033693571881
     16   L      46            25.8780000   -0.116631004382    0.139754883368
     16   L      47             9.4522100    0.096832803638    0.339361716786
     16   L      48             3.6656600    0.614418023082    0.450920623685
     16   L      49             1.4674600    0.403798015170    0.238585800889

     17   L      50             2.1562300   -0.252924113863   -0.017765312733
     17   L      51             0.7489970    0.032851844678    0.274058196433
     17   L      52             0.2831450    1.081254761783    0.785421562957

     18   L      53             0.0998317    1.000000000000    1.000000000000

     19   D      54             0.5500000    1.000000000000

 TOTAL NUMBER OF BASIS SET SHELLS             =   19
 NUMBER OF CARTESIAN GAUSSIAN BASIS FUNCTIONS =   66

     $CONTRL OPTIONS
     ---------------
 SCFTYP=RHF          RUNTYP=ENERGY       EXETYP=RUN     
 MPLEVL=       0     CITYP =NONE         CCTYP =NONE         VBTYP =NONE    
 DFTTYP=NONE         TDDFT =NONE    
 MULT  =       1     ICHARG=       0     NZVAR =       0     COORD =UNIQUE  
 PP    =NONE         RELWFN=NONE         LOCAL =NONE         NUMGRD=       F
 ISPHER=       1     NOSYM =       0     MAXIT =     200     UNITS =ANGS    
 PLTORB=       F     MOLPLT=       F     AIMPAC=       F     FRIEND=        
 NPRINT=      -5     IREST =       0     GEOM  =INPUT   
 NORMF =       0     NORMP =       0     ITOL  =      24     ICUT  =      12
 INTTYP=BEST         GRDTYP=BEST         QMTTOL= 1.0E-06

     $SYSTEM OPTIONS
     ---------------
  REPLICATED MEMORY=    63000000 WORDS (ON EVERY NODE).
 DISTRIBUTED MEMDDI=          63 MILLION WORDS IN AGGREGATE,
 MEMDDI DISTRIBUTED OVER  16 PROCESSORS IS     3937500 WORDS/PROCESSOR.
 TOTAL MEMORY REQUESTED ON EACH PROCESSOR=    66937500 WORDS.
 TIMLIM=      525600.00 MINUTES, OR     365.0 DAYS.
 PARALL= T  BALTYP=  DLB     KDIAG=    0  COREFL= F
 MXSEQ2=     300 MXSEQ3=     150  mem10=         0

 ** LOOKING UP INTERNALLY STORED DATA FOR SOLVENT=WATER    **
 OPTICAL AND PHYSICAL CONSTANTS:
 EPS= 78.390; EPSINF=  1.776; RSOLV=  1.385 A; VMOL=  18.070 ML/MOL;
 TCE= .25700E-03 1/K; STEN= 71.810 DYN/CM;  DSTEN=  0.6500; CMF=  1.2770


     -----------------------------------
     INPUT FOR PCM SOLVATION CALCULATION 
     -----------------------------------
     IEF   =     -10
     ICOMP =       2     IFIELD=       0     ICAV  =       1
     IDISP =       1     IREP  =       0     IDP   =       0

     SOLVNT=WATER        EPS   = 78.3900     EPSINF=  1.7760
     VMOL  = 18.0700     TCE   =  0.00025700 STEN  = 71.8100
     DSTEN =  0.6500     CMF   =  1.2770     RSOLV =  1.3850

     NESFP =       0
     OMEGA = 40.0000     RET   =100.0000     FRO   =  0.7000

     TABS  =298.0000     IPRINT=       0

     --------------------------------
     INPUT FOR ITERATIVE C-PCM METHOD 
     --------------------------------
     IPCMIT  =         1     MXDIIS  =        50
     MXITR1  =       200     MXITR2  =       200
     THRES   = 0.100E-09     IMUL    =         3
     RCUT(1) =   20.0000     RCUT(2) =   50.0000

     IDIRCT  =         1
     IMGABI  =         0     RABI    =    4.0000
     IMGASC  =         0     RASC    =   20.0000
     THRSLS  = 0.500E-03     DENSLS  =    0.0100
     IEFPOL  =         1     REFPOL  =    0.0000

     INPUT FOR ISOTROPIC DIELECTRICS
     -------------------------------
     EPS=    78.39

          ----------------
          PROPERTIES INPUT
          ----------------

     MOMENTS            FIELD           POTENTIAL          DENSITY
 IEMOM =       1   IEFLD =       0   IEPOT =       0   IEDEN =       0
 WHERE =COMASS     WHERE =NUCLEI     WHERE =NUCLEI     WHERE =NUCLEI  
 OUTPUT=BOTH       OUTPUT=BOTH       OUTPUT=NONE       OUTPUT=BOTH    
 IEMINT=       0   IEFINT=       0                     IEDINT=       0
                                                       MORB  =       0
          EXTRAPOLATION IN EFFECT
          SOSCF IN EFFECT
 ORBITAL PRINTING OPTION: NPREO=     1 32767     2     1

     -------------------------------
     INTEGRAL TRANSFORMATION OPTIONS
     -------------------------------
     NWORD  =            0
     CUTOFF = 1.0E-10     MPTRAN =       0
     DIRTRF =       T     AOINTS =DUP     

          ----------------------
          INTEGRAL INPUT OPTIONS
          ----------------------
 NOPK  =       1 NORDER=       0 SCHWRZ=       T

 ..... DONE SETTING UP THE RUN .....
 CPU     0: STEP CPU TIME=     0.04 TOTAL CPU TIME=          0.0 (      0.0 MIN)
 TOTAL WALL CLOCK TIME=          0.1 SECONDS, CPU UTILIZATION IS    57.14%
 CPU     0: STEP CPU TIME=     0.00 TOTAL CPU TIME=          0.0 (      0.0 MIN)
 TOTAL WALL CLOCK TIME=          0.1 SECONDS, CPU UTILIZATION IS    57.14%

                    ----------------------
                    AO INTEGRAL TECHNOLOGY
                    ----------------------
     S,P,L SHELL ROTATED AXIS INTEGRALS, REPROGRAMMED BY
        KAZUYA ISHIMURA (IMS) AND JOSE SIERRA (SYNSTAR).
     S,P,D,L SHELL ROTATED AXIS INTEGRALS PROGRAMMED BY
        KAZUYA ISHIMURA (INSTITUTE FOR MOLECULAR SCIENCE).
     S,P,D,F,G SHELL TO TOTAL QUARTET ANGULAR MOMENTUM SUM 5,
        ERIC PROGRAM BY GRAHAM FLETCHER (ELORET AND NASA ADVANCED
        SUPERCOMPUTING DIVISION, AMES RESEARCH CENTER).
     S,P,D,F,G,L SHELL GENERAL RYS QUADRATURE PROGRAMMED BY
        MICHEL DUPUIS (PACIFIC NORTHWEST NATIONAL LABORATORY).
 Setting modorb=1 flag...
 Setting modorb=1 flag...

          -----------------------
          MP2 CONTROL INFORMATION
          -----------------------
          NACORE =        8  NBCORE =        8
          LMOMP2 =        F  AOINTS = DUP     
          METHOD =        2  NWORD  =               0
          MP2PRP =        F  OSPT   = NONE    
          CUTOFF = 1.00E-12  CPHFBS = BASISAO 
          CODE   = IMS     

          NUMBER OF CORE -A-  ORBITALS =     8
          NUMBER OF CORE -B-  ORBITALS =     8
          NUMBER OF OCC. -A-  ORBITALS =    18
          NUMBER OF OCC. -B-  ORBITALS =    18
          NUMBER OF MOLECULAR ORBITALS =    66
          NUMBER OF   BASIS  FUNCTIONS =    66

 CPU     0: STEP CPU TIME=     0.04 TOTAL CPU TIME=          0.1 (      0.0 MIN)
 TOTAL WALL CLOCK TIME=          0.1 SECONDS, CPU UTILIZATION IS    80.00%
 CPU     0: STEP CPU TIME=     0.00 TOTAL CPU TIME=          0.1 (      0.0 MIN)
 TOTAL WALL CLOCK TIME=          0.1 SECONDS, CPU UTILIZATION IS    80.00%

     INPUT FOR CAVITY DEFINITION 
     ---------------------------
   ATOM               COORDINATES                RADIUS       EPS
      1      5.0750    -53.8640     39.6500      0.0100     78.3900
      2      5.7120    -54.0960     38.9430      1.5900     78.3900
      3      6.7710    -54.8410     39.5590      1.7700     78.3900
      4      6.3280    -55.6930     40.1210      0.0100     78.3900
      5      7.3050    -54.1930     40.2900      0.0100     78.3900
      6      7.7760    -55.3980     38.5460      1.7700     78.3900
      7      8.6110    -55.9170     39.0640      0.0100     78.3900
      8      7.1120    -56.3830     37.6950      1.5900     78.3900
      9      7.6100    -56.2650     36.3730      1.7700     78.3900
     10      7.9850    -57.2710     36.0780      0.0100     78.3900
     11      6.5570    -55.8650     35.4300      1.6800     78.3900
     12      6.6030    -55.9890     34.0680      1.7700     78.3900
     13      8.3070    -56.8890     31.1930      1.6800     78.3900
     14      9.1800    -57.2090     31.5510      0.0100     78.3900
     15      8.1500    -56.9100     30.2020      0.0100     78.3900
     16      7.6300    -56.4830     33.3560      1.6800     78.3900
     17      7.3930    -56.4720     32.0480      1.7700     78.3900
     18      6.2110    -56.0430     31.5040      1.6800     78.3900
     19      6.0940    -56.1110     30.5050      0.0100     78.3900
     20      5.1180    -55.5670     32.2160      1.7700     78.3900
     21      4.0830    -55.2180     31.6400      1.5900     78.3900
     22      5.3830    -55.5290     33.6110      1.7700     78.3900
     23      4.5870    -55.1040     34.6670      1.6800     78.3900
     24      5.3250    -55.3260     35.7320      1.7700     78.3900
     25      5.0360    -55.1260     36.7660      0.0100     78.3900
     26      8.7650    -55.2910     36.4060      1.7700     78.3900
     27      8.8680    -54.7250     35.4590      0.0100     78.3900
     28      9.9630    -55.9920     36.6850      1.5900     78.3900
     29     10.6520    -55.3280     36.8020      0.0100     78.3900
     30      8.3740    -54.3780     37.5600      1.7700     78.3900
     31      7.5490    -53.6920     37.2590      0.0100     78.3900
     32      9.4820    -53.6860     38.1730      1.5900     78.3900
     33      9.8740    -52.2340     37.7040      2.1000     78.3900
     34      8.6500    -51.4060     37.7060      1.5900     78.3900
     35     10.9850    -51.7660     38.5620      1.5900     78.3900
     36     10.3720    -52.4110     36.2260      1.5900     78.3900
     37     11.5910    -53.0920     35.8620      1.7700     78.3900
     38     11.6410    -54.1040     36.3190      0.0100     78.3900
     39     12.4730    -52.5190     36.2300      0.0100     78.3900
     40     11.7070    -53.2650     34.3360      1.7700     78.3900
     41     12.6360    -53.8110     34.0650      0.0100     78.3900
     42     10.5840    -54.0540     33.8370      1.5900     78.3900
     43     10.1570    -53.5530     32.5790      1.7700     78.3900
     44     10.2440    -54.4070     31.8690      0.0100     78.3900
     45      8.7430    -53.0650     32.6060      1.6800     78.3900
     46      8.1580    -52.7170     33.8000      1.7700     78.3900
     47      8.7950    -52.8170     34.6750      0.0100     78.3900
     48      8.0350    -52.9670     31.4250      1.7700     78.3900
     49      8.5190    -53.2430     30.3290      1.5900     78.3900
     50      6.7340    -52.5440     31.5600      1.6800     78.3900
     51      6.1750    -52.4890     30.7180      0.0100     78.3900
     52      6.0730    -52.2420     32.7330      1.7700     78.3900
     53      4.8870    -51.9380     32.7140      1.5900     78.3900
     54      6.8820    -52.3350     33.9070      1.7700     78.3900
     55      6.4260    -52.1310     34.8720      0.0100     78.3900
     56     11.1410    -52.4730     32.1800      1.7700     78.3900
     57     10.6390    -51.6620     31.6300      0.0100     78.3900
     58     12.1840    -53.0240     31.3970      1.5900     78.3900
     59     12.8390    -52.3200     31.2690      0.0100     78.3900
     60     11.6490    -51.9670     33.5250      1.7700     78.3900
     61     10.8790    -51.3250     34.0100      0.0100     78.3900
     62     12.9540    -51.3440     33.4860      1.5900     78.3900
     63     13.0600    -49.8050     33.1380      2.1000     78.3900
     64     11.9190    -49.0990     33.7650      1.5900     78.3900
     65     14.4170    -49.3470     33.5020      1.5900     78.3900
     66     12.9220    -49.7410     31.5640      1.5900     78.3900
     67     12.3450    -48.5720     30.9230      1.7700     78.3900
     68     13.1510    -47.8980     30.5560      0.0100     78.3900
     69     11.7100    -47.9720     31.6170      0.0100     78.3900
     70     11.4580    -48.9540     29.7290      1.7700     78.3900
     71     12.0530    -49.3950     28.9040      0.0100     78.3900
     72     10.4860    -49.9470     30.1520      1.5900     78.3900
     73      9.1990    -49.6170     29.6900      1.7700     78.3900
     74      8.8270    -50.5460     29.1990      0.0100     78.3900
     75      8.2490    -49.2610     30.7910      1.6800     78.3900
     76      8.6890    -49.1310     32.0960      1.7700     78.3900
     77      9.7640    -49.2540     32.2680      0.0100     78.3900
     78      7.8340    -48.8370     33.0880      1.7700     78.3900
     79      8.1670    -48.7060     34.1150      0.0100     78.3900
     80      6.8890    -49.1180     30.5090      1.7700     78.3900
     81      6.4960    -49.2670     29.3420      1.5900     78.3900
     82      6.0300    -48.8140     31.4970      1.6800     78.3900
     83      6.4540    -48.6860     32.7590      1.7700     78.3900
     84      5.5510    -48.4220     33.6980      1.6800     78.3900
     85      4.5890    -48.4720     33.3930      0.0100     78.3900
     86      5.7720    -48.3850     34.6720      0.0100     78.3900
     87      9.3750    -48.5230     28.6500      1.7700     78.3900
     88      8.5130    -47.8240     28.6000      0.0100     78.3900
     89      9.6180    -49.1090     27.3750      1.5900     78.3900
     90      9.0640    -49.8880     27.2510      0.0100     78.3900
     91     10.6110    -47.8000     29.1830      1.7700     78.3900
     92     10.3250    -47.1940     30.0770      0.0100     78.3900
     93     11.3670    -47.0510     28.1910      1.5900     78.3900
     94     11.1460    -45.4930     28.1350      2.1000     78.3900
     95      9.8170    -45.1990     28.7060      1.5900     78.3900
     96     12.3120    -44.8380     28.7690      1.5900     78.3900
     97     11.1130    -45.1230     26.6100      1.5900     78.3900
     98     12.2060    -45.4160     25.7200      1.7700     78.3900
     99     12.5570    -46.4650     25.8520      0.0100     78.3900
    100     13.0540    -44.7270     25.9290      0.0100     78.3900
    101     11.7920    -45.2480     24.2480      1.7700     78.3900
    102     12.6350    -45.5000     23.5670      0.0100     78.3900
    103     10.7040    -46.1660     23.9480      1.5900     78.3900
    104      9.7780    -45.5390     23.0850      1.7700     78.3900
    105      9.7020    -46.1930     22.1860      0.0100     78.3900
    106      8.4570    -45.4360     23.7160      1.6800     78.3900
    107      6.2790    -45.4430     24.0190      1.7700     78.3900
    108      6.8430    -45.2560     25.2740      1.6800     78.3900
    109      8.1370    -45.2650     25.0440      1.7700     78.3900
    110      8.9130    -45.1400     25.8040      0.0100     78.3900
    111      4.7260    -45.7320     22.2470      1.6800     78.3900
    112      5.7900    -45.8230     21.4460      1.7700     78.3900
    113      5.5640    -45.9840     20.3880      0.0100     78.3900
    114      7.0880    -45.7510     21.7430      1.6800     78.3900
    115      7.2640    -45.5470     23.0560      1.7700     78.3900
    116      4.9410    -45.5560     23.5760      1.7700     78.3900
    117      3.8750    -45.5230     24.3930      1.6800     78.3900
    118      3.9480    -45.3920     25.3910      0.0100     78.3900
    119      2.9650    -45.4200     23.9880      0.0100     78.3900
    120     10.3440    -44.1950     22.6780      1.7700     78.3900
    121      9.5590    -43.4180     22.5520      0.0100     78.3900
    122     11.0860    -44.3250     21.4780      1.5900     78.3900
    123     11.5200    -43.4720     21.3170      0.0100     78.3900
    124     11.2460    -43.8630     23.8630      1.7700     78.3900
    125     10.6250    -43.5140     24.7200      0.0100     78.3900
    126     12.3380    -42.9600     23.5670      1.5900     78.3900
    127     12.0250    -41.4130     23.5350      2.1000     78.3900
    128     11.2410    -41.0770     24.7460      1.5900     78.3900
    129     13.3130    -40.7150     23.3350      1.5900     78.3900
    130     11.1540    -41.2070     22.2280      1.5900     78.3900
    131     10.1130    -40.1930     22.2490      1.7700     78.3900
    132     10.5670    -39.1750     22.2210      0.0100     78.3900
    133      9.4990    -40.2560     23.1760      0.0100     78.3900
    134      9.1460    -40.3160     21.0590      1.7700     78.3900
    135      9.7140    -40.2600     20.1050      0.0100     78.3900
    136      8.4690    -41.6080     21.0720      1.5900     78.3900
    137      7.1020    -41.4400     20.7210      1.7700     78.3900
    138      6.9050    -42.1630     19.8960      0.0100     78.3900
    139      6.1700    -41.7250     21.8380      1.6800     78.3900
    140      6.4290    -41.8610     23.1910      1.7700     78.3900
    141      8.6880    -41.8490     25.8120      1.6800     78.3900
    142      8.6890    -41.8760     26.8070      0.0100     78.3900
    143      9.5360    -41.6050     25.3270      0.0100     78.3900
    144      7.6270    -41.7710     23.7940      1.6800     78.3900
    145      7.5800    -41.9170     25.0990      1.7700     78.3900
    146      6.4090    -42.1210     25.7780      1.6800     78.3900
    147      6.4680    -42.3320     26.7620      0.0100     78.3900
    148      5.1540    -42.2350     25.1910      1.7700     78.3900
    149      4.1260    -42.4160     25.8500      1.5900     78.3900
    150      5.2090    -42.0880     23.7800      1.7700     78.3900
    151      4.1950    -42.1190     22.8310      1.6800     78.3900
    152      4.8090    -41.9010     21.6930      1.7700     78.3900
    153      4.3120    -41.8400     20.7200      0.0100     78.3900
    154      6.9440    -40.0250     20.2090      1.7700     78.3900
    155      5.9380    -39.6050     20.4250      0.0100     78.3900
    156      7.1860    -39.9840     18.8110      1.5900     78.3900
    157      7.3340    -39.0570     18.5610      0.0100     78.3900
    158      8.0120    -39.2850     21.0040      1.7700     78.3900
    159      7.6740    -39.1520     22.0570      0.0100     78.3900
    160      8.4570    -38.0640     20.3800      1.5900     78.3900
    161      8.3020    -36.6560     21.0570      2.1000     78.3900
    162      9.1890    -36.5950     22.2370      1.5900     78.3900
    163      8.4970    -35.6200     20.0220      1.5900     78.3900
    164      6.8170    -36.6020     21.5660      1.5900     78.3900
    165      5.6800    -36.6300     20.6750      1.7700     78.3900
    166      5.7810    -37.4340     19.9120      0.0100     78.3900
    167      5.5830    -35.6640     20.1290      0.0100     78.3900
    168      4.3790    -36.8800     21.4530      1.7700     78.3900
    169      3.5050    -36.9030     20.7690      0.0100     78.3900
    170      4.4530    -38.1910     22.0940      1.5900     78.3900
    171      3.8700    -38.1110     23.3890      1.7700     78.3900
    172      3.0910    -38.9050     23.4410      0.0100     78.3900
    173      4.8590    -38.3560     24.4480      1.6800     78.3900
    174      4.6010    -38.6890     25.7510      1.7700     78.3900
    175      2.3640    -39.2420     28.3270      1.6800     78.3900
    176      2.3790    -39.5400     29.2740      0.0100     78.3900
    177      1.4820    -39.1080     27.8720      0.0100     78.3900
    178      3.3880    -38.8390     26.3060      1.6800     78.3900
    179      3.4580    -39.1200     27.6020      1.7700     78.3900
    180      4.6390    -39.3340     28.2630      1.6800     78.3900
    181      4.6070    -39.5180     29.2560      0.0100     78.3900
    182      5.9040    -39.2270     27.7070      1.7700     78.3900
    183      6.9330    -39.4350     28.3590      1.5900     78.3900
    184      5.8380    -38.8450     26.3440      1.7700     78.3900
    185      6.8530    -38.5880     25.4410      1.6800     78.3900
    186      6.2260    -38.3020     24.3280      1.7700     78.3900
    187      6.7010    -38.0400     23.3830      0.0100     78.3900
    188      3.2210    -36.7510     23.5150      1.7700     78.3900
    189      3.2390    -36.3650     24.5560      0.0100     78.3900
    190      1.8850    -36.8240     23.0560      1.5900     78.3900
    191      1.5700    -35.9160     22.9720      0.0100     78.3900
    192      4.0800    -35.8930     22.5910      1.7700     78.3900
    193      5.0580    -35.6650     23.0750      0.0100     78.3900
    194      3.4210    -34.7090     22.0690      1.5900     78.3900
    195      3.5370    -33.3670     22.8960      2.1000     78.3900
    196      4.9740    -33.0670     23.0670      1.5900     78.3900
    197      2.7210    -32.3350     22.2220      1.5900     78.3900
    198      2.9260    -33.6890     24.3060      1.5900     78.3900
    199      1.4940    -33.7870     24.4920      1.7700     78.3900
    200      1.0550    -34.5870     23.8590      0.0100     78.3900
    201      0.9950    -32.8240     24.2200      0.0100     78.3900
    202      1.1540    -34.1070     25.9550      1.7700     78.3900
    203      0.0560    -34.2220     26.0860      0.0100     78.3900
    204      1.7730    -35.3520     26.3840      1.5900     78.3900
    205      2.1500    -35.2490     27.7490      1.7700     78.3900
    206      1.5970    -36.0600     28.2770      0.0100     78.3900
    207      3.6180    -35.4360     27.9310      1.6800     78.3900
    208      4.4930    -35.2260     26.8840      1.7700     78.3900
    209      4.0350    -34.9080     25.9480      0.0100     78.3900
    210      4.0830    -35.8320     29.1600      1.7700     78.3900
    211      3.3330    -36.0100     30.1270      1.5900     78.3900
    212      5.4320    -36.0350     29.2390      1.6800     78.3900
    213      5.7970    -36.2700     30.1580      0.0100     78.3900
    214      6.3610    -35.8770     28.2340      1.7700     78.3900
    215      7.5460    -36.1100     28.4520      1.5900     78.3900
    216      5.8110    -35.4430     26.9870      1.7700     78.3900
    217      6.4850    -35.3140     26.1420      0.0100     78.3900
    218      1.6600    -33.8960     28.2480      1.7700     78.3900
    219      2.3410    -33.4610     29.0030      0.0100     78.3900
    220      0.3610    -33.9950     28.7990      1.5900     78.3900
    221      0.0790    -33.0860     28.9620      0.0100     78.3900
    222      1.6540    -33.0790     26.9630      1.7700     78.3900
    223      2.6990    -32.8360     26.6600      0.0100     78.3900
    224      0.7670    -31.9390     26.9640      1.5900     78.3900
    225      1.3750    -30.5030     27.1550      2.1000     78.3900
    226      2.6340    -30.3980     26.3890      1.5900     78.3900
    227      0.3300    -29.4960     26.8630      1.5900     78.3900
    228      1.7070    -30.4660     28.6940      1.5900     78.3900
    229      0.6240    -30.4100     29.6550      1.7700     78.3900
    230     -0.0950    -31.2540     29.5150      0.0100     78.3900
    231      0.0590    -29.4550     29.5400      0.0100     78.3900
    232      1.1490    -30.4650     31.0930      1.7700     78.3900
    233      0.3190    -30.3610     31.8260      0.0100     78.3900
    234      1.7830    -31.7540     31.3330      1.5900     78.3900
    235      2.9390    -31.5630     32.1420      1.7700     78.3900
    236      2.7840    -32.2110     33.0390      0.0100     78.3900
    237      4.1950    -31.9730     31.4500      1.6800     78.3900
    238      4.2280    -32.0730     30.0800      1.7700     78.3900
    239      3.3020    -31.8280     29.5650      0.0100     78.3900
    240      5.3280    -32.4720     29.4300      1.7700     78.3900
    241      5.3580    -32.5810     28.3470      0.0100     78.3900
    242      5.3450    -32.2370     32.1850      1.7700     78.3900
    243      5.3150    -32.1140     33.4180      1.5900     78.3900
    244      6.4740    -32.6280     31.5480      1.6800     78.3900
    245      6.4850    -32.7570     30.2090      1.7700     78.3900
    246      7.6010    -33.1630     29.6070      1.6800     78.3900
    247      8.4110    -33.3760     30.1590      0.0100     78.3900
    248      7.6700    -33.2430     28.6150      0.0100     78.3900
    249      2.9580    -30.1080     32.5860      1.7700     78.3900
    250      3.9910    -29.7140     32.6920      0.0100     78.3900
    251      2.2570    -29.9760     33.8110      1.5900     78.3900
    252      2.0900    -29.0310     33.9690      0.0100     78.3900
    253      2.2290    -29.4270     31.4330      1.7700     78.3900
    254      2.9050    -29.3260     30.5560      0.0100     78.3900
    255      1.6340    -28.1600     31.7720      1.5900     78.3900
    256      2.3330    -27.5010     31.9640      0.0100     78.3900
    257     16.4410    -36.0880     35.6140      0.0100     78.3900
    258     15.5420    -35.7800     35.8200      1.5900     78.3900
    259     15.5510    -35.3710     37.1960      1.7700     78.3900
    260     16.2620    -34.5230     37.3180      0.0100     78.3900
    261     15.9170    -36.2140     37.8260      0.0100     78.3900
    262     14.1770    -34.9190     37.7020      1.7700     78.3900
    263     14.2210    -34.6570     38.7810      0.0100     78.3900
    264     13.7680    -33.7160     36.9830      1.5900     78.3900
    265     12.3700    -33.7690     36.7450      1.7700     78.3900
    266     11.9400    -32.8250     37.1590      0.0100     78.3900
    267     12.0650    -33.8540     35.3090      1.6800     78.3900
    268     10.8550    -33.5920     34.7290      1.7700     78.3900
    269      7.5330    -32.6650     35.0090      1.6800     78.3900
    270      7.4270    -32.4980     35.9860      0.0100     78.3900
    271      6.7560    -32.4780     34.4000      0.0100     78.3900
    272      9.7350    -33.2310     35.3780      1.6800     78.3900
    273      8.7170    -33.0170     34.5480      1.7700     78.3900
    274      8.8150    -33.1550     33.1880      1.6800     78.3900
    275      8.0010    -32.9470     32.6300      0.0100     78.3900
    276      9.9590    -33.5220     32.4890      1.7700     78.3900
    277      9.9590    -33.6110     31.2560      1.5900     78.3900
    278     11.0490    -33.7620     33.3700      1.7700     78.3900
    279     12.3600    -34.1450     33.1000      1.6800     78.3900
    280     12.9220    -34.2010     34.2870      1.7700     78.3900
    281     13.9630    -34.4690     34.4840      0.0100     78.3900
    282     11.8270    -34.9490     37.5140      1.7700     78.3900
    283     10.9390    -35.4040     37.0300      0.0100     78.3900
    284     11.5080    -34.5540     38.8360      1.5900     78.3900
    285     11.2070    -35.3510     39.2880      0.0100     78.3900
    286     13.0160    -35.9050     37.4840      1.7700     78.3900
    287     13.1470    -36.3370     36.4640      0.0100     78.3900
    288     13.0140    -36.9140     38.5210      1.5900     78.3900
    289     12.2990    -38.2950     38.2520      2.1000     78.3900
    290     12.8050    -38.8520     36.9790      1.5900     78.3900
    291     12.4350    -39.1540     39.4480      1.5900     78.3900
    292     10.7840    -37.9120     38.0890      1.5900     78.3900
    293      9.9950    -37.5410     39.2490      1.7700     78.3900
    294     10.4280    -36.6610     39.7740      0.0100     78.3900
    295      9.9640    -38.3710     39.9940      0.0100     78.3900
    296      8.5510    -37.2020     38.8520      1.7700     78.3900
    297      7.9630    -36.8730     39.7340      0.0100     78.3900
    298      8.5290    -36.1110     37.8850      1.5900     78.3900
    299      7.5070    -36.3510     36.9260      1.7700     78.3900
    300      6.8400    -35.4590     36.9330      0.0100     78.3900
    301      8.0660    -36.5260     35.5840      1.6800     78.3900
    302      8.2980    -36.6750     33.4040      1.7700     78.3900
    303      9.5550    -36.9060     33.9450      1.6800     78.3900
    304      9.3630    -36.8150     35.2360      1.7700     78.3900
    305     10.1380    -36.9500     35.9920      0.0100     78.3900
    306      6.5100    -36.3730     31.8830      1.6800     78.3900
    307      5.7360    -36.1800     32.9540      1.7700     78.3900
    308      4.6800    -35.9830     32.7380      0.0100     78.3900
    309      6.0620    -36.2030     34.2510      1.6800     78.3900
    310      7.3710    -36.4470     34.4050      1.7700     78.3900
    311      7.8310    -36.6280     32.0730      1.7700     78.3900
    312      8.6320    -36.8070     31.0060      1.6800     78.3900
    313      9.6210    -36.9490     31.1040      0.0100     78.3900
    314      8.2770    -36.6370     30.0820      0.0100     78.3900
    315      6.7340    -37.5750     37.3690      1.7700     78.3900
    316      6.3800    -38.1860     36.5140      0.0100     78.3900
    317      5.6410    -37.2150     38.1900      1.5900     78.3900
    318      5.3090    -38.0330     38.5870      0.0100     78.3900
    319      7.7970    -38.3300     38.1470      1.7700     78.3900
    320      8.5350    -38.7630     37.4330      0.0100     78.3900
    321      7.2770    -39.2730     39.1120      1.5900     78.3900
    322      7.4450    -40.8160     38.8510      2.1000     78.3900
    323      8.4000    -41.0440     37.7470      1.5900     78.3900
    324      7.7250    -41.5010     40.1270      1.5900     78.3900
    325      6.0200    -41.2360     38.3560      1.5900     78.3900
    326      4.8420    -41.0620     39.1720      1.7700     78.3900
    327      4.8820    -40.1300     39.7850      0.0100     78.3900
    328      4.7490    -41.9240     39.8670      0.0100     78.3900
    329      3.5850    -41.0120     38.2990      1.7700     78.3900
    330      2.6660    -40.8930     38.9130      0.0100     78.3900
    331      3.6750    -39.8580     37.4060      1.5900     78.3900
    332      3.1850    -40.2200     36.1230      1.7700     78.3900
    333      2.4030    -39.4720     35.8580      0.0100     78.3900
    334      4.2590    -40.1830     35.1070      1.6800     78.3900
    335      5.3740    -40.0010     33.2140      1.7700     78.3900
    336      6.3270    -40.1320     34.2100      1.6800     78.3900
    337      5.6190    -40.2550     35.3040      1.7700     78.3900
    338      6.0400    -40.3670     36.2990      0.0100     78.3900
    339      4.3260    -39.7180     31.1100      1.6800     78.3900
    340      3.1700    -39.7850     31.7790      1.7700     78.3900
    341      2.2680    -39.6930     31.1670      0.0100     78.3900
    342      2.9390    -39.9440     33.0840      1.6800     78.3900
    343      4.0960    -40.0380     33.7530      1.7700     78.3900
    344      5.4830    -39.8250     31.8170      1.7700     78.3900
    345      6.6710    -39.7570     31.1800      1.6800     78.3900
    346      7.5400    -39.8910     31.6670      0.0100     78.3900
    347      6.7320    -39.5790     30.1940      0.0100     78.3900
    348      2.5430    -41.5870     36.2550      1.7700     78.3900
    349      2.5940    -42.1550     35.3120      0.0100     78.3900
    350      1.1850    -41.4620     36.6340      1.5900     78.3900
    351      0.8400    -42.3560     36.7960      0.0100     78.3900
    352      3.3940    -42.2170     37.3560      1.7700     78.3900
    353      4.3880    -42.4900     36.9390      0.0100     78.3900
    354      2.7530    -43.3100     38.0380      1.5900     78.3900
    355      3.4650    -44.6550     38.4500      2.1000     78.3900
    356      4.1390    -44.4750     39.7540      1.5900     78.3900
    357      2.4400    -45.7190     38.4150      1.5900     78.3900
    358      4.5490    -44.9450     37.3460      1.5900     78.3900
    359      4.2460    -45.8140     36.2300      1.7700     78.3900
    360      3.8930    -46.8140     36.5730      0.0100     78.3900
    361      5.1880    -45.9970     35.6600      0.0100     78.3900
    362      3.2160    -45.2030     35.2720      1.7700     78.3900
    363      2.2970    -44.8660     35.8120      0.0100     78.3900
    364      3.8130    -44.0610     34.6130      1.5900     78.3900
    365      3.2330    -43.9090     33.3300      1.7700     78.3900
    366      2.6650    -42.9510     33.3480      0.0100     78.3900
    367      4.2620    -43.8070     32.3020      1.6800     78.3900
    368      4.0770    -43.3740     31.0220      1.7700     78.3900
    369      1.9950    -42.2780     28.4920      1.6800     78.3900
    370      2.0570    -42.0760     27.5160      0.0100     78.3900
    371      1.1010    -42.2290     28.9400      0.0100     78.3900
    372      2.9070    -42.9940     30.4790      1.6800     78.3900
    373      3.0380    -42.6470     29.2060      1.7700     78.3900
    374      4.2480    -42.5720     28.5710      1.6800     78.3900
    375      4.2390    -42.4130     27.5760      0.0100     78.3900
    376      5.4710    -42.9270     29.1150      1.7700     78.3900
    377      6.5070    -42.8220     28.4550      1.5900     78.3900
    378      5.3310    -43.3830     30.4480      1.7700     78.3900
    379      6.2800    -43.8500     31.3400      1.6800     78.3900
    380      5.6030    -44.0920     32.4300      1.7700     78.3900
    381      6.0340    -44.4650     33.3640      0.0100     78.3900
    382      2.2670    -45.0630     33.1100      1.7700     78.3900
    383      2.2940    -45.4580     32.0720      0.0100     78.3900
    384      0.9520    -44.6490     33.4270      1.5900     78.3900
    385      0.3830    -45.4340     33.3980      0.0100     78.3900
    386      2.7830    -46.0950     34.1110      1.7700     78.3900
    387      3.7220    -46.5530     33.7280      0.0100     78.3900
    388      1.8090    -47.0690     34.5650      1.5900     78.3900
    389      1.5760    -48.3420     33.6550      2.1000     78.3900
    390      2.8320    -48.5980     32.9010      1.5900     78.3900
    391      1.0430    -49.4310     34.4860      1.5900     78.3900
    392      0.4220    -47.8930     32.6690      1.5900     78.3900
    393      0.1400    -48.7120     31.4960      1.7700     78.3900
    394     -0.5270    -49.5600     31.7680      0.0100     78.3900
    395      1.0740    -49.1610     31.0870      0.0100     78.3900
    396     -0.5040    -47.9100     30.3340      1.7700     78.3900
    397     -1.5840    -47.7310     30.5280      0.0100     78.3900
    398      0.1250    -46.5950     30.2340      1.5900     78.3900
    399      0.4310    -46.2990     28.8800      1.7700     78.3900
    400      0.0140    -45.2820     28.7000      0.0100     78.3900
    401      1.8920    -46.2750     28.6190      1.6800     78.3900
    402      2.7560    -46.9600     29.4490      1.7700     78.3900
    403      2.3140    -47.4900     30.2970      0.0100     78.3900
    404      4.0740    -46.9460     29.2370      1.7700     78.3900
    405      4.7750    -47.4670     29.8810      0.0100     78.3900
    406      2.3890    -45.6000     27.5040      1.7700     78.3900
    407      1.5960    -45.0480     26.7250      1.5900     78.3900
    408      3.7230    -45.5460     27.3020      1.6800     78.3900
    409      4.5550    -46.1960     28.1330      1.7700     78.3900
    410      5.8540    -46.1200     27.9130      1.6800     78.3900
    411      6.1660    -45.6570     27.0750      0.0100     78.3900
    412      6.5030    -46.6990     28.3940      0.0100     78.3900
    413     -0.3110    -47.2930     28.0150      1.7700     78.3900
    414      0.2090    -47.5090     27.0560      0.0100     78.3900
    415     -1.6210    -46.8190     27.7490      1.5900     78.3900
    416     -2.1500    -47.5740     27.4490      0.0100     78.3900
    417     -0.3230    -48.5180     28.9190      1.7700     78.3900
    418      0.6870    -48.9940     28.9110      0.0100     78.3900
    419     -1.3890    -49.4450     28.6220      1.5900     78.3900
    420     -1.0860    -50.7900     27.8690      2.1000     78.3900
    421     -0.0910    -51.5370     28.6610      1.5900     78.3900
    422     -2.3740    -51.4680     27.5980      1.5900     78.3900
    423     -0.4250    -50.3330     26.5100      1.5900     78.3900
    424     -1.2780    -49.9440     25.4030      1.7700     78.3900
    425     -1.7900    -48.9780     25.6230      0.0100     78.3900
    426     -2.0750    -50.6980     25.2130      0.0100     78.3900
    427     -0.4820    -49.7890     24.0980      1.7700     78.3900
    428     -1.1570    -49.5580     23.2440      0.0100     78.3900
    429      0.4240    -48.6570     24.2350      1.5900     78.3900
    430      1.6610    -48.9600     23.6160      1.7700     78.3900
    431      1.8640    -48.1440     22.8840      0.0100     78.3900
    432      2.7420    -48.9940     24.6000      1.6800     78.3900
    433      4.7110    -49.0200     25.5660      1.7700     78.3900
    434      3.7770    -48.9590     26.5930      1.6800     78.3900
    435      2.6280    -48.9530     25.9690      1.7700     78.3900
    436      1.6490    -48.9340     26.4520      0.0100     78.3900
    437      6.7490    -49.0300     24.3570      1.6800     78.3900
    438      6.0070    -49.0600     23.2500      1.7700     78.3900
    439      6.5710    -49.0780     22.3100      0.0100     78.3900
    440      4.6760    -49.0760     23.1310      1.6800     78.3900
    441      4.0850    -49.0350     24.3350      1.7700     78.3900
    442      6.1190    -49.0300     25.5540      1.7700     78.3900
    443      6.8780    -49.0170     26.6480      1.6800     78.3900
    444      6.4620    -48.9930     27.5670      0.0100     78.3900
    445      7.8240    -48.7060     26.5520      0.0100     78.3900
    446      1.5050    -50.2770     22.8860      1.7700     78.3900
    447      2.4380    -50.8760     22.8900      0.0100     78.3900
    448      1.0900    -50.0400     21.5540      1.5900     78.3900
    449      0.8080    -50.8860     21.1780      0.0100     78.3900
    450      0.4230    -50.9730     23.7070      1.7700     78.3900
    451      0.8520    -51.3700     24.6540      0.0100     78.3900
    452     -0.3250    -51.9740     22.9790      1.5900     78.3900
    453      0.0240    -53.5020     23.1570      2.1000     78.3900
    454     -0.1920    -53.9090     24.5610      1.5900     78.3900
    455     -0.7220    -54.2570     22.1310      1.5900     78.3900
    456      1.5620    -53.6140     22.8610      1.5900     78.3900
    457      2.1090    -53.5340     21.5250      1.7700     78.3900
    458      1.8210    -52.5820     21.0250      0.0100     78.3900
    459      1.7340    -54.3680     20.8920      0.0100     78.3900
    460      3.6460    -53.5990     21.5600      1.7700     78.3900
    461      4.0790    -53.5220     20.5400      0.0100     78.3900
    462      4.1510    -52.4740     22.3370      1.5900     78.3900
    463      5.2310    -52.8930     23.1500      1.7700     78.3900
    464      6.0830    -52.2130     22.9140      0.0100     78.3900
    465      4.9130    -52.7780     24.5870      1.6800     78.3900
    466      5.8130    -52.8110     25.6200      1.7700     78.3900
    467      9.0670    -53.1380     26.7370      1.6800     78.3900
    468      9.5590    -53.2590     27.5980      0.0100     78.3900
    469      9.5490    -53.3220     25.8820      0.0100     78.3900
    470      7.1380    -52.9780     25.5000      1.6800     78.3900
    471      7.7610    -52.9930     26.6720      1.7700     78.3900
    472      7.1160    -52.8340     27.8680      1.6800     78.3900
    473      7.6510    -52.9070     28.7170      0.0100     78.3900
    474      5.7510    -52.6580     28.0270      1.7700     78.3900
    475      5.2740    -52.5260     29.1580      1.5900     78.3900
    476      5.0730    -52.6470     26.7720      1.7700     78.3900
    477      3.7210    -52.5220     26.4730      1.6800     78.3900
    478      3.6740    -52.6080     25.1640      1.7700     78.3900
    479      2.7720    -52.5450     24.5530      0.0100     78.3900
    480      5.5830    -54.3060     22.7380      1.7700     78.3900
    481      5.9820    -54.9110     23.5770      0.0100     78.3900
    482      6.5320    -54.2660     21.6920      1.5900     78.3900
    483      6.5610    -55.1460     21.2920      0.0100     78.3900
    484      4.2380    -54.8420     22.2500      1.7700     78.3900
    485      3.5760    -55.0750     23.1160      0.0100     78.3900
    486      4.3300    -55.9320     21.3040      1.5900     78.3900
    487      4.1670    -57.4250     21.7770      2.1000     78.3900
    488      2.8840    -57.5720     22.4980      1.5900     78.3900
    489      4.3720    -58.3130     20.6120      1.5900     78.3900
    490      5.3520    -57.6140     22.8000      1.5900     78.3900
    491      6.7200    -57.7150     22.3360      1.7700     78.3900
    492      7.0490    -56.7670     21.8600      0.0100     78.3900
    493      6.8200    -58.5260     21.5780      0.0100     78.3900
    494      7.6870    -58.0270     23.4900      1.7700     78.3900
    495      8.6960    -58.2930     23.1060      0.0100     78.3900
    496      7.8390    -56.8320     24.3110      1.5900     78.3900
    497      7.9220    -57.2080     25.6810      1.7700     78.3900
    498      8.8790    -56.7740     26.0560      0.0100     78.3900
    499      6.7900    -56.6770     26.4930      1.6800     78.3900
    500      5.6010    -56.3360     25.8890      1.7700     78.3900
    501      5.5690    -56.4470     24.8050      0.0100     78.3900
    502      4.5650    -55.8660     26.5960      1.7700     78.3900
    503      3.6330    -55.5530     26.1230      0.0100     78.3900
    504      6.9080    -56.5910     27.8780      1.7700     78.3900
    505      7.9640    -56.9520     28.4200      1.5900     78.3900
    506      5.8760    -56.1120     28.6080      1.6800     78.3900
    507      4.7260    -55.7590     28.0080      1.7700     78.3900
    508      3.7360    -55.2870     28.7570      1.6800     78.3900
    509      3.8790    -55.1540     29.7410      0.0100     78.3900
    510      2.9060    -54.9070     28.3490      0.0100     78.3900
    511      8.0100    -58.7240     25.7410      1.7700     78.3900
    512      7.5140    -59.1350     26.6470      0.0100     78.3900
    513      9.3660    -59.1430     25.6980      1.5900     78.3900
    514      9.3900    -60.1030     25.5360      0.0100     78.3900
    515      7.2380    -59.1120     24.4840      1.7700     78.3900
    516      6.1480    -58.9970     24.6630      0.0100     78.3900
    517      7.5350    -60.4300     23.9880      1.5900     78.3900
    518      7.1690    -61.1030     24.5900      0.0100     78.3900

     ----------------------------
     INPUT FOR TESSERA DEFINITION
     ----------------------------
     NTSALL  =        60     MTHALL  =         4
     MTHAUT  =         0     AUTFRE  =    2.0000
     NTSFRZ  =        60     KEEPSM  =         0
     AREAKP  =   10.0000     BONDRY  =    1.0000
     AREATL  =    0.0100

     SPHERE     INITS       METHOD
          1        60       FIXPVA
          2        60       FIXPVA
          3        60       FIXPVA
          4        60       FIXPVA
          5        60       FIXPVA
          6        60       FIXPVA
          7        60       FIXPVA
          8        60       FIXPVA
          9        60       FIXPVA
         10        60       FIXPVA
         11        60       FIXPVA
         12        60       FIXPVA
         13        60       FIXPVA
         14        60       FIXPVA
         15        60       FIXPVA
         16        60       FIXPVA
         17        60       FIXPVA
         18        60       FIXPVA
         19        60       FIXPVA
         20        60       FIXPVA
         21        60       FIXPVA
         22        60       FIXPVA
         23        60       FIXPVA
         24        60       FIXPVA
         25        60       FIXPVA
         26        60       FIXPVA
         27        60       FIXPVA
         28        60       FIXPVA
         29        60       FIXPVA
         30        60       FIXPVA
         31        60       FIXPVA
         32        60       FIXPVA
         33        60       FIXPVA
         34        60       FIXPVA
         35        60       FIXPVA
         36        60       FIXPVA
         37        60       FIXPVA
         38        60       FIXPVA
         39        60       FIXPVA
         40        60       FIXPVA
         41        60       FIXPVA
         42        60       FIXPVA
         43        60       FIXPVA
         44        60       FIXPVA
         45        60       FIXPVA
         46        60       FIXPVA
         47        60       FIXPVA
         48        60       FIXPVA
         49        60       FIXPVA
         50        60       FIXPVA
         51        60       FIXPVA
         52        60       FIXPVA
         53        60       FIXPVA
         54        60       FIXPVA
         55        60       FIXPVA
         56        60       FIXPVA
         57        60       FIXPVA
         58        60       FIXPVA
         59        60       FIXPVA
         60        60       FIXPVA
         61        60       FIXPVA
         62        60       FIXPVA
         63        60       FIXPVA
         64        60       FIXPVA
         65        60       FIXPVA
         66        60       FIXPVA
         67        60       FIXPVA
         68        60       FIXPVA
         69        60       FIXPVA
         70        60       FIXPVA
         71        60       FIXPVA
         72        60       FIXPVA
         73        60       FIXPVA
         74        60       FIXPVA
         75        60       FIXPVA
         76        60       FIXPVA
         77        60       FIXPVA
         78        60       FIXPVA
         79        60       FIXPVA
         80        60       FIXPVA
         81        60       FIXPVA
         82        60       FIXPVA
         83        60       FIXPVA
         84        60       FIXPVA
         85        60       FIXPVA
         86        60       FIXPVA
         87        60       FIXPVA
         88        60       FIXPVA
         89        60       FIXPVA
         90        60       FIXPVA
         91        60       FIXPVA
         92        60       FIXPVA
         93        60       FIXPVA
         94        60       FIXPVA
         95        60       FIXPVA
         96        60       FIXPVA
         97        60       FIXPVA
         98        60       FIXPVA
         99        60       FIXPVA
        100        60       FIXPVA
        101        60       FIXPVA
        102        60       FIXPVA
        103        60       FIXPVA
        104        60       FIXPVA
        105        60       FIXPVA
        106        60       FIXPVA
        107        60       FIXPVA
        108        60       FIXPVA
        109        60       FIXPVA
        110        60       FIXPVA
        111        60       FIXPVA
        112        60       FIXPVA
        113        60       FIXPVA
        114        60       FIXPVA
        115        60       FIXPVA
        116        60       FIXPVA
        117        60       FIXPVA
        118        60       FIXPVA
        119        60       FIXPVA
        120        60       FIXPVA
        121        60       FIXPVA
        122        60       FIXPVA
        123        60       FIXPVA
        124        60       FIXPVA
        125        60       FIXPVA
        126        60       FIXPVA
        127        60       FIXPVA
        128        60       FIXPVA
        129        60       FIXPVA
        130        60       FIXPVA
        131        60       FIXPVA
        132        60       FIXPVA
        133        60       FIXPVA
        134        60       FIXPVA
        135        60       FIXPVA
        136        60       FIXPVA
        137        60       FIXPVA
        138        60       FIXPVA
        139        60       FIXPVA
        140        60       FIXPVA
        141        60       FIXPVA
        142        60       FIXPVA
        143        60       FIXPVA
        144        60       FIXPVA
        145        60       FIXPVA
        146        60       FIXPVA
        147        60       FIXPVA
        148        60       FIXPVA
        149        60       FIXPVA
        150        60       FIXPVA
        151        60       FIXPVA
        152        60       FIXPVA
        153        60       FIXPVA
        154        60       FIXPVA
        155        60       FIXPVA
        156        60       FIXPVA
        157        60       FIXPVA
        158        60       FIXPVA
        159        60       FIXPVA
        160        60       FIXPVA
        161        60       FIXPVA
        162        60       FIXPVA
        163        60       FIXPVA
        164        60       FIXPVA
        165        60       FIXPVA
        166        60       FIXPVA
        167        60       FIXPVA
        168        60       FIXPVA
        169        60       FIXPVA
        170        60       FIXPVA
        171        60       FIXPVA
        172        60       FIXPVA
        173        60       FIXPVA
        174        60       FIXPVA
        175        60       FIXPVA
        176        60       FIXPVA
        177        60       FIXPVA
        178        60       FIXPVA
        179        60       FIXPVA
        180        60       FIXPVA
        181        60       FIXPVA
        182        60       FIXPVA
        183        60       FIXPVA
        184        60       FIXPVA
        185        60       FIXPVA
        186        60       FIXPVA
        187        60       FIXPVA
        188        60       FIXPVA
        189        60       FIXPVA
        190        60       FIXPVA
        191        60       FIXPVA
        192        60       FIXPVA
        193        60       FIXPVA
        194        60       FIXPVA
        195        60       FIXPVA
        196        60       FIXPVA
        197        60       FIXPVA
        198        60       FIXPVA
        199        60       FIXPVA
        200        60       FIXPVA
        201        60       FIXPVA
        202        60       FIXPVA
        203        60       FIXPVA
        204        60       FIXPVA
        205        60       FIXPVA
        206        60       FIXPVA
        207        60       FIXPVA
        208        60       FIXPVA
        209        60       FIXPVA
        210        60       FIXPVA
        211        60       FIXPVA
        212        60       FIXPVA
        213        60       FIXPVA
        214        60       FIXPVA
        215        60       FIXPVA
        216        60       FIXPVA
        217        60       FIXPVA
        218        60       FIXPVA
        219        60       FIXPVA
        220        60       FIXPVA
        221        60       FIXPVA
        222        60       FIXPVA
        223        60       FIXPVA
        224        60       FIXPVA
        225        60       FIXPVA
        226        60       FIXPVA
        227        60       FIXPVA
        228        60       FIXPVA
        229        60       FIXPVA
        230        60       FIXPVA
        231        60       FIXPVA
        232        60       FIXPVA
        233        60       FIXPVA
        234        60       FIXPVA
        235        60       FIXPVA
        236        60       FIXPVA
        237        60       FIXPVA
        238        60       FIXPVA
        239        60       FIXPVA
        240        60       FIXPVA
        241        60       FIXPVA
        242        60       FIXPVA
        243        60       FIXPVA
        244        60       FIXPVA
        245        60       FIXPVA
        246        60       FIXPVA
        247        60       FIXPVA
        248        60       FIXPVA
        249        60       FIXPVA
        250        60       FIXPVA
        251        60       FIXPVA
        252        60       FIXPVA
        253        60       FIXPVA
        254        60       FIXPVA
        255        60       FIXPVA
        256        60       FIXPVA
        257        60       FIXPVA
        258        60       FIXPVA
        259        60       FIXPVA
        260        60       FIXPVA
        261        60       FIXPVA
        262        60       FIXPVA
        263        60       FIXPVA
        264        60       FIXPVA
        265        60       FIXPVA
        266        60       FIXPVA
        267        60       FIXPVA
        268        60       FIXPVA
        269        60       FIXPVA
        270        60       FIXPVA
        271        60       FIXPVA
        272        60       FIXPVA
        273        60       FIXPVA
        274        60       FIXPVA
        275        60       FIXPVA
        276        60       FIXPVA
        277        60       FIXPVA
        278        60       FIXPVA
        279        60       FIXPVA
        280        60       FIXPVA
        281        60       FIXPVA
        282        60       FIXPVA
        283        60       FIXPVA
        284        60       FIXPVA
        285        60       FIXPVA
        286        60       FIXPVA
        287        60       FIXPVA
        288        60       FIXPVA
        289        60       FIXPVA
        290        60       FIXPVA
        291        60       FIXPVA
        292        60       FIXPVA
        293        60       FIXPVA
        294        60       FIXPVA
        295        60       FIXPVA
        296        60       FIXPVA
        297        60       FIXPVA
        298        60       FIXPVA
        299        60       FIXPVA
        300        60       FIXPVA
        301        60       FIXPVA
        302        60       FIXPVA
        303        60       FIXPVA
        304        60       FIXPVA
        305        60       FIXPVA
        306        60       FIXPVA
        307        60       FIXPVA
        308        60       FIXPVA
        309        60       FIXPVA
        310        60       FIXPVA
        311        60       FIXPVA
        312        60       FIXPVA
        313        60       FIXPVA
        314        60       FIXPVA
        315        60       FIXPVA
        316        60       FIXPVA
        317        60       FIXPVA
        318        60       FIXPVA
        319        60       FIXPVA
        320        60       FIXPVA
        321        60       FIXPVA
        322        60       FIXPVA
        323        60       FIXPVA
        324        60       FIXPVA
        325        60       FIXPVA
        326        60       FIXPVA
        327        60       FIXPVA
        328        60       FIXPVA
        329        60       FIXPVA
        330        60       FIXPVA
        331        60       FIXPVA
        332        60       FIXPVA
        333        60       FIXPVA
        334        60       FIXPVA
        335        60       FIXPVA
        336        60       FIXPVA
        337        60       FIXPVA
        338        60       FIXPVA
        339        60       FIXPVA
        340        60       FIXPVA
        341        60       FIXPVA
        342        60       FIXPVA
        343        60       FIXPVA
        344        60       FIXPVA
        345        60       FIXPVA
        346        60       FIXPVA
        347        60       FIXPVA
        348        60       FIXPVA
        349        60       FIXPVA
        350        60       FIXPVA
        351        60       FIXPVA
        352        60       FIXPVA
        353        60       FIXPVA
        354        60       FIXPVA
        355        60       FIXPVA
        356        60       FIXPVA
        357        60       FIXPVA
        358        60       FIXPVA
        359        60       FIXPVA
        360        60       FIXPVA
        361        60       FIXPVA
        362        60       FIXPVA
        363        60       FIXPVA
        364        60       FIXPVA
        365        60       FIXPVA
        366        60       FIXPVA
        367        60       FIXPVA
        368        60       FIXPVA
        369        60       FIXPVA
        370        60       FIXPVA
        371        60       FIXPVA
        372        60       FIXPVA
        373        60       FIXPVA
        374        60       FIXPVA
        375        60       FIXPVA
        376        60       FIXPVA
        377        60       FIXPVA
        378        60       FIXPVA
        379        60       FIXPVA
        380        60       FIXPVA
        381        60       FIXPVA
        382        60       FIXPVA
        383        60       FIXPVA
        384        60       FIXPVA
        385        60       FIXPVA
        386        60       FIXPVA
        387        60       FIXPVA
        388        60       FIXPVA
        389        60       FIXPVA
        390        60       FIXPVA
        391        60       FIXPVA
        392        60       FIXPVA
        393        60       FIXPVA
        394        60       FIXPVA
        395        60       FIXPVA
        396        60       FIXPVA
        397        60       FIXPVA
        398        60       FIXPVA
        399        60       FIXPVA
        400        60       FIXPVA
        401        60       FIXPVA
        402        60       FIXPVA
        403        60       FIXPVA
        404        60       FIXPVA
        405        60       FIXPVA
        406        60       FIXPVA
        407        60       FIXPVA
        408        60       FIXPVA
        409        60       FIXPVA
        410        60       FIXPVA
        411        60       FIXPVA
        412        60       FIXPVA
        413        60       FIXPVA
        414        60       FIXPVA
        415        60       FIXPVA
        416        60       FIXPVA
        417        60       FIXPVA
        418        60       FIXPVA
        419        60       FIXPVA
        420        60       FIXPVA
        421        60       FIXPVA
        422        60       FIXPVA
        423        60       FIXPVA
        424        60       FIXPVA
        425        60       FIXPVA
        426        60       FIXPVA
        427        60       FIXPVA
        428        60       FIXPVA
        429        60       FIXPVA
        430        60       FIXPVA
        431        60       FIXPVA
        432        60       FIXPVA
        433        60       FIXPVA
        434        60       FIXPVA
        435        60       FIXPVA
        436        60       FIXPVA
        437        60       FIXPVA
        438        60       FIXPVA
        439        60       FIXPVA
        440        60       FIXPVA
        441        60       FIXPVA
        442        60       FIXPVA
        443        60       FIXPVA
        444        60       FIXPVA
        445        60       FIXPVA
        446        60       FIXPVA
        447        60       FIXPVA
        448        60       FIXPVA
        449        60       FIXPVA
        450        60       FIXPVA
        451        60       FIXPVA
        452        60       FIXPVA
        453        60       FIXPVA
        454        60       FIXPVA
        455        60       FIXPVA
        456        60       FIXPVA
        457        60       FIXPVA
        458        60       FIXPVA
        459        60       FIXPVA
        460        60       FIXPVA
        461        60       FIXPVA
        462        60       FIXPVA
        463        60       FIXPVA
        464        60       FIXPVA
        465        60       FIXPVA
        466        60       FIXPVA
        467        60       FIXPVA
        468        60       FIXPVA
        469        60       FIXPVA
        470        60       FIXPVA
        471        60       FIXPVA
        472        60       FIXPVA
        473        60       FIXPVA
        474        60       FIXPVA
        475        60       FIXPVA
        476        60       FIXPVA
        477        60       FIXPVA
        478        60       FIXPVA
        479        60       FIXPVA
        480        60       FIXPVA
        481        60       FIXPVA
        482        60       FIXPVA
        483        60       FIXPVA
        484        60       FIXPVA
        485        60       FIXPVA
        486        60       FIXPVA
        487        60       FIXPVA
        488        60       FIXPVA
        489        60       FIXPVA
        490        60       FIXPVA
        491        60       FIXPVA
        492        60       FIXPVA
        493        60       FIXPVA
        494        60       FIXPVA
        495        60       FIXPVA
        496        60       FIXPVA
        497        60       FIXPVA
        498        60       FIXPVA
        499        60       FIXPVA
        500        60       FIXPVA
        501        60       FIXPVA
        502        60       FIXPVA
        503        60       FIXPVA
        504        60       FIXPVA
        505        60       FIXPVA
        506        60       FIXPVA
        507        60       FIXPVA
        508        60       FIXPVA
        509        60       FIXPVA
        510        60       FIXPVA
        511        60       FIXPVA
        512        60       FIXPVA
        513        60       FIXPVA
        514        60       FIXPVA
        515        60       FIXPVA
        516        60       FIXPVA
        517        60       FIXPVA
        518        60       FIXPVA

     ------------------------------
      FIXPVA TESSELLATION FOR PCM
         PEIFENG SU AND HUI LI
     UNIVERSITY OF NEBRASKA-LINCOLN
     ------------------------------


 PCM DIMENSIONS: MXSP=   518, MXTS=     20720, MEMORY=        212901

     INPUT FOR CAVITY DEFINITION 
     ---------------------------
   ATOM               COORDINATES                RADIUS       EPS
      1      5.0750    -53.8640     39.6500      0.0100     78.3900
      2      5.7120    -54.0960     38.9430      1.5900     78.3900
      3      6.7710    -54.8410     39.5590      1.7700     78.3900
      4      6.3280    -55.6930     40.1210      0.0100     78.3900
      5      7.3050    -54.1930     40.2900      0.0100     78.3900
      6      7.7760    -55.3980     38.5460      1.7700     78.3900
      7      8.6110    -55.9170     39.0640      0.0100     78.3900
      8      7.1120    -56.3830     37.6950      1.5900     78.3900
      9      7.6100    -56.2650     36.3730      1.7700     78.3900
     10      7.9850    -57.2710     36.0780      0.0100     78.3900
     11      6.5570    -55.8650     35.4300      1.6800     78.3900
     12      6.6030    -55.9890     34.0680      1.7700     78.3900
     13      8.3070    -56.8890     31.1930      1.6800     78.3900
     14      9.1800    -57.2090     31.5510      0.0100     78.3900
     15      8.1500    -56.9100     30.2020      0.0100     78.3900
     16      7.6300    -56.4830     33.3560      1.6800     78.3900
     17      7.3930    -56.4720     32.0480      1.7700     78.3900
     18      6.2110    -56.0430     31.5040      1.6800     78.3900
     19      6.0940    -56.1110     30.5050      0.0100     78.3900
     20      5.1180    -55.5670     32.2160      1.7700     78.3900
     21      4.0830    -55.2180     31.6400      1.5900     78.3900
     22      5.3830    -55.5290     33.6110      1.7700     78.3900
     23      4.5870    -55.1040     34.6670      1.6800     78.3900
     24      5.3250    -55.3260     35.7320      1.7700     78.3900
     25      5.0360    -55.1260     36.7660      0.0100     78.3900
     26      8.7650    -55.2910     36.4060      1.7700     78.3900
     27      8.8680    -54.7250     35.4590      0.0100     78.3900
     28      9.9630    -55.9920     36.6850      1.5900     78.3900
     29     10.6520    -55.3280     36.8020      0.0100     78.3900
     30      8.3740    -54.3780     37.5600      1.7700     78.3900
     31      7.5490    -53.6920     37.2590      0.0100     78.3900
     32      9.4820    -53.6860     38.1730      1.5900     78.3900
     33      9.8740    -52.2340     37.7040      2.1000     78.3900
     34      8.6500    -51.4060     37.7060      1.5900     78.3900
     35     10.9850    -51.7660     38.5620      1.5900     78.3900
     36     10.3720    -52.4110     36.2260      1.5900     78.3900
     37     11.5910    -53.0920     35.8620      1.7700     78.3900
     38     11.6410    -54.1040     36.3190      0.0100     78.3900
     39     12.4730    -52.5190     36.2300      0.0100     78.3900
     40     11.7070    -53.2650     34.3360      1.7700     78.3900
     41     12.6360    -53.8110     34.0650      0.0100     78.3900
     42     10.5840    -54.0540     33.8370      1.5900     78.3900
     43     10.1570    -53.5530     32.5790      1.7700     78.3900
     44     10.2440    -54.4070     31.8690      0.0100     78.3900
     45      8.7430    -53.0650     32.6060      1.6800     78.3900
     46      8.1580    -52.7170     33.8000      1.7700     78.3900
     47      8.7950    -52.8170     34.6750      0.0100     78.3900
     48      8.0350    -52.9670     31.4250      1.7700     78.3900
     49      8.5190    -53.2430     30.3290      1.5900     78.3900
     50      6.7340    -52.5440     31.5600      1.6800     78.3900
     51      6.1750    -52.4890     30.7180      0.0100     78.3900
     52      6.0730    -52.2420     32.7330      1.7700     78.3900
     53      4.8870    -51.9380     32.7140      1.5900     78.3900
     54      6.8820    -52.3350     33.9070      1.7700     78.3900
     55      6.4260    -52.1310     34.8720      0.0100     78.3900
     56     11.1410    -52.4730     32.1800      1.7700     78.3900
     57     10.6390    -51.6620     31.6300      0.0100     78.3900
     58     12.1840    -53.0240     31.3970      1.5900     78.3900
     59     12.8390    -52.3200     31.2690      0.0100     78.3900
     60     11.6490    -51.9670     33.5250      1.7700     78.3900
     61     10.8790    -51.3250     34.0100      0.0100     78.3900
     62     12.9540    -51.3440     33.4860      1.5900     78.3900
     63     13.0600    -49.8050     33.1380      2.1000     78.3900
     64     11.9190    -49.0990     33.7650      1.5900     78.3900
     65     14.4170    -49.3470     33.5020      1.5900     78.3900
     66     12.9220    -49.7410     31.5640      1.5900     78.3900
     67     12.3450    -48.5720     30.9230      1.7700     78.3900
     68     13.1510    -47.8980     30.5560      0.0100     78.3900
     69     11.7100    -47.9720     31.6170      0.0100     78.3900
     70     11.4580    -48.9540     29.7290      1.7700     78.3900
     71     12.0530    -49.3950     28.9040      0.0100     78.3900
     72     10.4860    -49.9470     30.1520      1.5900     78.3900
     73      9.1990    -49.6170     29.6900      1.7700     78.3900
[...]
   466   15   6.0   0.00    0.0    0.000000    0.711870    0.712406
   467   15   7.0  18.00   35.2   -0.208780   -0.986058   -0.997266
   468   15   1.0   0.00    0.0    0.000000    0.451173    0.451147
   469   15   1.0   0.00    0.0    0.000000    0.457837    0.456066
   470   15   7.0   4.92    9.6    0.074588   -0.741233   -0.749960
   471   15   6.0   0.06    0.1    0.000256    0.973363    0.977761
   472   15   7.0   0.00    0.0    0.000000   -0.930633   -1.011573
   473   15   1.0   0.00    0.0    0.000000    0.454667    0.521774
   474   15   6.0   0.00    0.0    0.000000    0.901019    0.909885
   475   15   8.0   5.48   12.0    0.134274   -0.764104   -0.731923
   476   15   6.0   0.00    0.0    0.000106   -0.048913   -0.040125
   477   15   7.0   4.13    8.1    0.109701   -0.580230   -0.583937
   478   15   6.0   2.03    3.6    0.010316    0.288419    0.271451
   479   15   1.0   0.00    0.0    0.000000    0.260607    0.285293
   480   15   6.0   0.00    0.0    0.000000    0.134689    0.109780
   481   15   1.0   0.00    0.0    0.000000    0.192199    0.224830
   482   15   8.0  17.33   37.9    0.061176   -0.832008   -0.847020
   483   15   1.0   0.00    0.0    0.000000    0.504257    0.522996
   484   15   6.0   0.94    1.7   -0.009361    0.137951    0.105370
   485   15   1.0   0.00    0.0    0.000000    0.242761    0.248742
   486   15   8.0   3.51    7.7    0.053461   -0.790652   -0.797442
   487   15  15.0   8.65   10.8    0.127936    1.605611    1.646817
   488   15   8.0  14.89   32.5    0.336202   -0.892634   -0.886716
   489   15   8.0  16.70   36.5    0.329414   -0.893425   -0.888696
   490   15   8.0   0.10    0.2    0.007371   -0.980268   -0.791397
   491   16   6.0  11.54   20.4   -0.069589    0.207329   -0.014674
   492   16   1.0   0.00    0.0    0.000000    0.157976    0.171298
   493   16   1.0   0.00    0.0    0.000000    0.240944    0.221234
   494   16   6.0   6.83   12.0   -0.046243    0.086557    0.143416
   495   16   1.0   0.00    0.0    0.000000    0.252408    0.224179
   496   16   8.0   3.92    8.6    0.048707   -0.725700   -0.733650
   497   16   6.0   3.66    6.5   -0.042362    0.416076    0.416521
   498   16   1.0   0.00    0.0    0.000000    0.254789    0.244149
   499   16   7.0   0.00    0.0    0.000000   -0.824370   -0.833489
   500   16   6.0   1.01    1.8    0.001568    0.194998    0.173284
   501   16   1.0   0.00    0.0    0.000000    0.296619    0.319355
   502   16   6.0   8.44   14.9   -0.038411   -0.389745   -0.397851
   503   16   1.0   0.00    0.0    0.000000    0.278351    0.285205
   504   16   6.0   1.10    1.9   -0.005882    1.061044    1.071169
   505   16   8.0   9.53   20.8    0.142840   -0.798297   -0.770859
   506   16   7.0   1.76    3.4    0.018584   -0.868321   -0.859761
   507   16   6.0   0.56    1.0   -0.001085    0.718788    0.727313
   508   16   7.0  15.74   30.8   -0.079314   -0.943011   -0.993447
   509   16   1.0   0.00    0.0    0.000000    0.461988    0.504473
   510   16   1.0   0.00    0.0    0.000000    0.450988    0.449290
   511   16   6.0   7.27   12.8   -0.059998    0.124369    0.124873
   512   16   1.0   0.00    0.0    0.000000    0.225444    0.225813
   513   16   8.0  21.01   45.9    0.038360   -0.842068   -0.845973
   514   16   1.0   0.00    0.0    0.000000    0.506199    0.507165
   515   16   6.0   5.81   10.2   -0.041631    0.167397    0.147652
   516   16   1.0   0.00    0.0    0.000000    0.219027    0.222728
   517   16   8.0  22.18   48.5   -0.006519   -0.850548   -0.853008
   518   16   1.0   0.00    0.0    0.000000    0.508332    0.508464

 Done with FMO properties.
 CPU     0: STEP CPU TIME=     0.00 TOTAL CPU TIME=      35622.3 (    593.7 MIN)
 TOTAL WALL CLOCK TIME=      79038.5 SECONDS, CPU UTILIZATION IS    45.07%
 CPU     0: STEP CPU TIME=     0.00 TOTAL CPU TIME=      35622.3 (    593.7 MIN)
 TOTAL WALL CLOCK TIME=      79038.6 SECONDS, CPU UTILIZATION IS    45.07%

 Total timing statistics in pairs (CPU,wall) for each rank, sec

    Rank   total     SCF    corr     DFT    CPHF     EFP    solv     ESP    geom
 -------------------------------------------------------------------------------
       1   35622.3   9039.8  13425.0      0.0    0.0   0.0  345.1 12068.1    0.0
       1   79038.7  18533.3  33831.8      0.0    0.0   0.0  808.5 24259.3    0.0
       2   35524.7   8984.3  13417.7      0.0    0.0   0.0  347.3 12037.8    0.0
       2   79038.7  18526.7  33836.3      0.0    0.0   0.0  808.2 24258.0    0.0
       3   35670.7   9002.7  13535.4      0.0    0.0   0.0  348.1 12046.6    0.0
       3   79038.7  18526.4  33836.3      0.0    0.0   0.0  808.4 24258.2    0.0
       4   35438.8   8984.2  13354.7      0.0    0.0   0.0  343.9 12024.4    0.0
       4   79038.7  18527.2  33836.2      0.0    0.0   0.0  806.4 24258.0    0.0
       5   35593.9   9004.2  13428.8      0.0    0.0   0.0  345.8 12076.7    0.0
       5   79038.7  18527.0  33836.2      0.0    0.0   0.0  808.3 24258.8    0.0
       6   35478.9   8970.6  13393.5      0.0    0.0   0.0  342.6 12036.9    0.0
       6   79038.7  18527.9  33836.2      0.0    0.0   0.0  806.0 24258.5    0.0
       7   35475.3   8997.4  13369.5      0.0    0.0   0.0  343.0 12032.1    0.0
       7   79038.7  18528.0  33836.2      0.0    0.0   0.0  806.7 24258.6    0.0
       8   35463.4   8965.6  13416.0      0.0    0.0   0.0  342.0 12007.6    0.0
       8   79038.7  18527.5  33836.1      0.0    0.0   0.0  805.1 24258.5    0.0
       9   35547.7   9011.3  13390.1      0.0    0.0   0.0  340.3 12069.5    0.0
       9   79038.7  18527.2  33836.2      0.0    0.0   0.0  807.2 24259.1    0.0
      10   35529.5   8970.4  13449.1      0.0    0.0   0.0  341.8 12035.5    0.0
      10   79038.7  18527.5  33836.2      0.0    0.0   0.0  805.7 24259.0    0.0
      11   35555.1   8966.6  13485.7      0.0    0.0   0.0  340.7 12028.1    0.0
      11   79038.7  18528.5  33836.1      0.0    0.0   0.0  805.9 24259.0    0.0
      12   35467.0   8951.4  13428.4      0.0    0.0   0.0  339.9 12016.4    0.0
      12   79038.7  18527.8  33836.1      0.0    0.0   0.0  804.4 24258.9    0.0
      13   35544.1   8983.0  13484.9      0.0    0.0   0.0  337.2 12008.1    0.0
      13   79038.7  18528.9  33836.2      0.0    0.0   0.0  805.6 24259.0    0.0
      14   35330.6   8950.9  13305.3      0.0    0.0   0.0  339.7 12003.5    0.0
      14   79038.7  18528.0  33836.1      0.0    0.0   0.0  804.5 24258.7    0.0
      15   35516.2   8972.5  13475.7      0.0    0.0   0.0  337.2 12003.5    0.0
      15   79038.7  18527.9  33836.1      0.0    0.0   0.0  804.5 24258.8    0.0
      16   35447.5   8955.5  13435.4      0.0    0.0   0.0  337.4 11993.6    0.0
      16   79038.7  18527.8  33836.1      0.0    0.0   0.0  803.4 24258.8    0.0
averaged   35512.9   8981.9  13424.7      0.0    0.0   0.0  342.0 12030.5    0.0
averaged   79038.7  18528.0  33835.9      0.0    0.0   0.0  806.2 24258.7    0.0

  FMO  timing statistics in pairs (CPU,wall) for each rank, sec

    Rank  FMOini FMOscf1  FMOdm1 FMOsyn1 FMOscf2  FMOes2 FMOsyn2 FMOscf3 FMOsyn3
 -------------------------------------------------------------------------------
       1    3.3   12561.5    0.5    0.0   22516.6     540.4    0.0    0.0    0.0
       1    8.2   25488.6    2.6    0.0   52447.1    1091.8    0.0    0.0    0.0
       2    2.5   12527.5    0.1    0.0   22456.2     538.4    0.0    0.0    0.0
       2    8.2   25488.6    2.6    0.0   52446.8    1092.1    0.0    0.0    0.0
       3    2.8   12530.0    0.2    0.0   22598.9     538.8    0.0    0.0    0.0
       3    8.2   25488.6    2.6    0.0   52449.4    1089.5    0.0    0.0    0.0
       4    2.5   12518.6    0.1    0.0   22380.1     537.5    0.0    0.0    0.0
       4    8.2   25488.6    2.6    0.0   52451.6    1087.3    0.0    0.0    0.0
       5    2.9   12551.8    0.3    0.0   22498.7     540.3    0.0    0.0    0.0
       5    8.2   25488.6    2.6    0.0   52447.8    1091.1    0.0    0.0    0.0
       6    2.6   12516.0    0.2    0.0   22421.8     538.4    0.0    0.0    0.0
       6    8.2   25488.6    2.6    0.0   52448.8    1090.1    0.0    0.0    0.0
       7    2.7   12528.0    0.2    0.0   22405.7     538.6    0.0    0.0    0.0
       7    8.2   25488.6    2.6    0.0   52449.3    1089.6    0.0    0.0    0.0
       8    2.4   12491.8    0.2    0.0   22430.9     538.2    0.0    0.0    0.0
       8    8.2   25488.6    2.6    0.0   52453.0    1085.9    0.0    0.0    0.0
       9    2.8   12544.9    0.4    0.0   22460.3     539.3    0.0    0.0    0.0
       9    8.2   25488.6    2.6    0.0   52449.9    1089.0    0.0    0.0    0.0
      10    2.4   12506.1    0.2    0.0   22482.0     538.8    0.0    0.0    0.0
      10    8.2   25488.6    2.6    0.0   52451.5    1087.4    0.0    0.0    0.0
      11    2.5   12490.8    0.2    0.0   22524.6     537.0    0.0    0.0    0.0
      11    8.2   25488.6    2.6    0.0   52448.2    1090.7    0.0    0.0    0.0
      12    2.2   12490.6    0.1    0.0   22437.1     536.9    0.0    0.0    0.0
      12    8.2   25488.6    2.6    0.0   52448.6    1090.3    0.0    0.0    0.0
      13    2.7   12486.4    0.3    0.0   22519.1     535.6    0.0    0.0    0.0
      13    8.2   25488.6    2.6    0.0   52447.0    1091.9    0.0    0.0    0.0
      14    2.3   12483.3    0.1    0.0   22308.0     536.9    0.0    0.0    0.0
      14    8.2   25488.5    2.6    0.0   52447.6    1091.3    0.0    0.0    0.0
      15    2.5   12486.5    0.2    0.0   22491.1     535.9    0.0    0.0    0.0
      15    8.2   25488.6    2.6    0.0   52451.2    1087.7    0.0    0.0    0.0
      16    2.3   12474.1    0.1    0.0   22435.8     535.2    0.0    0.0    0.0
      16    8.2   25488.6    2.6    0.0   52451.2    1087.7    0.0    0.0    0.0
averaged    2.6   12511.7    0.2    0.0   22460.4     537.9    0.0    0.0    0.0
averaged    8.2   25488.6    2.6    0.0   52449.3    1089.6    0.0    0.0    0.0
             62740562  WORDS OF DYNAMIC MEMORY USED
 EXECUTION OF GAMESS TERMINATED NORMALLY Sun Dec  8 06:15:10 2019
 DDI: 263640 bytes (0.3 MB / 0 MWords) used by master data server.

 ----------------------------------------
 CPU timing information for all processes
 ========================================
 0: 34822.769 + 799.583 = 35622.352
 1: 34778.907 + 745.809 = 35524.717
 2: 34919.763 + 750.991 = 35670.754
 3: 34703.332 + 735.480 = 35438.813
 4: 34827.200 + 766.765 = 35593.965
 5: 34743.156 + 735.816 = 35478.973
 6: 34727.55 + 748.270 = 35475.325
 7: 34718.324 + 745.151 = 35463.475
 8: 34773.169 + 774.600 = 35547.769
 9: 34796.610 + 732.914 = 35529.525
 10: 34809.736 + 745.382 = 35555.118
 11: 34742.387 + 724.659 = 35467.47
 12: 34764.192 + 779.936 = 35544.128
 13: 34607.117 + 723.526 = 35330.644
 14: 34767.47 + 749.199 = 35516.246
 15: 34736.865 + 710.698 = 35447.564
 ----------------------------------------
 ddikick.x: exited gracefully.
unset echo
----- accounting info -----
Files used on the master node gollum088.lsa.umich.edu were:
-rw-r--r-- 1 hazwong frank    25653 Dec  7 08:17 /scratch/hazwong/824951/28SR_2/usrc/28SR_2_fmo_input.F05
-rw-r--r-- 1 hazwong frank      634 Dec  8 06:15 /scratch/hazwong/824951/28SR_2/usrc/28SR_2_fmo_input.F06.001
-rw-r--r-- 1 hazwong frank      634 Dec  8 06:15 /scratch/hazwong/824951/28SR_2/usrc/28SR_2_fmo_input.F06.002
-rw-r--r-- 1 hazwong frank      634 Dec  8 06:15 /scratch/hazwong/824951/28SR_2/usrc/28SR_2_fmo_input.F06.003
-rw-r--r-- 1 hazwong frank      634 Dec  8 06:15 /scratch/hazwong/824951/28SR_2/usrc/28SR_2_fmo_input.F06.004
-rw-r--r-- 1 hazwong frank      634 Dec  8 06:15 /scratch/hazwong/824951/28SR_2/usrc/28SR_2_fmo_input.F06.005
-rw-r--r-- 1 hazwong frank      634 Dec  8 06:15 /scratch/hazwong/824951/28SR_2/usrc/28SR_2_fmo_input.F06.006
-rw-r--r-- 1 hazwong frank      634 Dec  8 06:15 /scratch/hazwong/824951/28SR_2/usrc/28SR_2_fmo_input.F06.007
-rw-r--r-- 1 hazwong frank      634 Dec  8 06:15 /scratch/hazwong/824951/28SR_2/usrc/28SR_2_fmo_input.F06.008
-rw-r--r-- 1 hazwong frank      634 Dec  8 06:15 /scratch/hazwong/824951/28SR_2/usrc/28SR_2_fmo_input.F06.009
-rw-r--r-- 1 hazwong frank      634 Dec  8 06:15 /scratch/hazwong/824951/28SR_2/usrc/28SR_2_fmo_input.F06.010
-rw-r--r-- 1 hazwong frank      634 Dec  8 06:15 /scratch/hazwong/824951/28SR_2/usrc/28SR_2_fmo_input.F06.011
-rw-r--r-- 1 hazwong frank      634 Dec  8 06:15 /scratch/hazwong/824951/28SR_2/usrc/28SR_2_fmo_input.F06.012
-rw-r--r-- 1 hazwong frank      634 Dec  8 06:15 /scratch/hazwong/824951/28SR_2/usrc/28SR_2_fmo_input.F06.013
-rw-r--r-- 1 hazwong frank      634 Dec  8 06:15 /scratch/hazwong/824951/28SR_2/usrc/28SR_2_fmo_input.F06.014
-rw-r--r-- 1 hazwong frank      634 Dec  8 06:15 /scratch/hazwong/824951/28SR_2/usrc/28SR_2_fmo_input.F06.015
-rw-r--r-- 1 hazwong frank    21906 Dec  8 06:15 /scratch/hazwong/824951/28SR_2/usrc/28SR_2_fmo_input.F07
-rw-r--r-- 1 hazwong frank        0 Dec  7 08:17 /scratch/hazwong/824951/28SR_2/usrc/28SR_2_fmo_input.F07.001
-rw-r--r-- 1 hazwong frank        0 Dec  7 08:17 /scratch/hazwong/824951/28SR_2/usrc/28SR_2_fmo_input.F07.002
-rw-r--r-- 1 hazwong frank        0 Dec  7 08:17 /scratch/hazwong/824951/28SR_2/usrc/28SR_2_fmo_input.F07.003
-rw-r--r-- 1 hazwong frank        0 Dec  7 08:17 /scratch/hazwong/824951/28SR_2/usrc/28SR_2_fmo_input.F07.004
-rw-r--r-- 1 hazwong frank        0 Dec  7 08:17 /scratch/hazwong/824951/28SR_2/usrc/28SR_2_fmo_input.F07.005
-rw-r--r-- 1 hazwong frank        0 Dec  7 08:17 /scratch/hazwong/824951/28SR_2/usrc/28SR_2_fmo_input.F07.006
-rw-r--r-- 1 hazwong frank        0 Dec  7 08:17 /scratch/hazwong/824951/28SR_2/usrc/28SR_2_fmo_input.F07.007
-rw-r--r-- 1 hazwong frank        0 Dec  7 08:17 /scratch/hazwong/824951/28SR_2/usrc/28SR_2_fmo_input.F07.008
-rw-r--r-- 1 hazwong frank        0 Dec  7 08:17 /scratch/hazwong/824951/28SR_2/usrc/28SR_2_fmo_input.F07.009
-rw-r--r-- 1 hazwong frank        0 Dec  7 08:17 /scratch/hazwong/824951/28SR_2/usrc/28SR_2_fmo_input.F07.010
-rw-r--r-- 1 hazwong frank        0 Dec  7 08:17 /scratch/hazwong/824951/28SR_2/usrc/28SR_2_fmo_input.F07.011
-rw-r--r-- 1 hazwong frank        0 Dec  7 08:17 /scratch/hazwong/824951/28SR_2/usrc/28SR_2_fmo_input.F07.012
-rw-r--r-- 1 hazwong frank        0 Dec  7 08:17 /scratch/hazwong/824951/28SR_2/usrc/28SR_2_fmo_input.F07.013
-rw-r--r-- 1 hazwong frank        0 Dec  7 08:17 /scratch/hazwong/824951/28SR_2/usrc/28SR_2_fmo_input.F07.014
-rw-r--r-- 1 hazwong frank        0 Dec  7 08:17 /scratch/hazwong/824951/28SR_2/usrc/28SR_2_fmo_input.F07.015
-rw-r--r-- 1 hazwong frank    65440 Dec  8 06:15 /scratch/hazwong/824951/28SR_2/usrc/28SR_2_fmo_input.F10.000
-rw-r--r-- 1 hazwong frank        0 Dec  7 08:17 /scratch/hazwong/824951/28SR_2/usrc/28SR_2_fmo_input.F26.000
-rw-r--r-- 1 hazwong frank        0 Dec  7 08:17 /scratch/hazwong/824951/28SR_2/usrc/28SR_2_fmo_input.F26.001
-rw-r--r-- 1 hazwong frank        0 Dec  7 08:17 /scratch/hazwong/824951/28SR_2/usrc/28SR_2_fmo_input.F26.002
-rw-r--r-- 1 hazwong frank        0 Dec  7 08:17 /scratch/hazwong/824951/28SR_2/usrc/28SR_2_fmo_input.F26.003
-rw-r--r-- 1 hazwong frank        0 Dec  7 08:17 /scratch/hazwong/824951/28SR_2/usrc/28SR_2_fmo_input.F26.004
-rw-r--r-- 1 hazwong frank        0 Dec  7 08:17 /scratch/hazwong/824951/28SR_2/usrc/28SR_2_fmo_input.F26.005
-rw-r--r-- 1 hazwong frank        0 Dec  7 08:17 /scratch/hazwong/824951/28SR_2/usrc/28SR_2_fmo_input.F26.006
-rw-r--r-- 1 hazwong frank        0 Dec  7 08:17 /scratch/hazwong/824951/28SR_2/usrc/28SR_2_fmo_input.F26.007
-rw-r--r-- 1 hazwong frank        0 Dec  7 08:17 /scratch/hazwong/824951/28SR_2/usrc/28SR_2_fmo_input.F26.008
-rw-r--r-- 1 hazwong frank        0 Dec  7 08:17 /scratch/hazwong/824951/28SR_2/usrc/28SR_2_fmo_input.F26.009
-rw-r--r-- 1 hazwong frank        0 Dec  7 08:17 /scratch/hazwong/824951/28SR_2/usrc/28SR_2_fmo_input.F26.010
-rw-r--r-- 1 hazwong frank        0 Dec  7 08:17 /scratch/hazwong/824951/28SR_2/usrc/28SR_2_fmo_input.F26.011
-rw-r--r-- 1 hazwong frank        0 Dec  7 08:17 /scratch/hazwong/824951/28SR_2/usrc/28SR_2_fmo_input.F26.012
-rw-r--r-- 1 hazwong frank        0 Dec  7 08:17 /scratch/hazwong/824951/28SR_2/usrc/28SR_2_fmo_input.F26.013
-rw-r--r-- 1 hazwong frank        0 Dec  7 08:17 /scratch/hazwong/824951/28SR_2/usrc/28SR_2_fmo_input.F26.014
-rw-r--r-- 1 hazwong frank        0 Dec  7 08:17 /scratch/hazwong/824951/28SR_2/usrc/28SR_2_fmo_input.F26.015
-rw-r--r-- 1 hazwong frank        0 Dec  7 08:17 /scratch/hazwong/824951/28SR_2/usrc/28SR_2_fmo_input.F27.000
-rw-r--r-- 1 hazwong frank        0 Dec  7 08:17 /scratch/hazwong/824951/28SR_2/usrc/28SR_2_fmo_input.F27.001
-rw-r--r-- 1 hazwong frank        0 Dec  7 08:17 /scratch/hazwong/824951/28SR_2/usrc/28SR_2_fmo_input.F27.002
-rw-r--r-- 1 hazwong frank        0 Dec  7 08:17 /scratch/hazwong/824951/28SR_2/usrc/28SR_2_fmo_input.F27.003
-rw-r--r-- 1 hazwong frank        0 Dec  7 08:17 /scratch/hazwong/824951/28SR_2/usrc/28SR_2_fmo_input.F27.004
-rw-r--r-- 1 hazwong frank        0 Dec  7 08:17 /scratch/hazwong/824951/28SR_2/usrc/28SR_2_fmo_input.F27.005
-rw-r--r-- 1 hazwong frank        0 Dec  7 08:17 /scratch/hazwong/824951/28SR_2/usrc/28SR_2_fmo_input.F27.006
-rw-r--r-- 1 hazwong frank        0 Dec  7 08:17 /scratch/hazwong/824951/28SR_2/usrc/28SR_2_fmo_input.F27.007
-rw-r--r-- 1 hazwong frank        0 Dec  7 08:17 /scratch/hazwong/824951/28SR_2/usrc/28SR_2_fmo_input.F27.008
-rw-r--r-- 1 hazwong frank        0 Dec  7 08:17 /scratch/hazwong/824951/28SR_2/usrc/28SR_2_fmo_input.F27.009
-rw-r--r-- 1 hazwong frank        0 Dec  7 08:17 /scratch/hazwong/824951/28SR_2/usrc/28SR_2_fmo_input.F27.010
-rw-r--r-- 1 hazwong frank        0 Dec  7 08:17 /scratch/hazwong/824951/28SR_2/usrc/28SR_2_fmo_input.F27.011
-rw-r--r-- 1 hazwong frank        0 Dec  7 08:17 /scratch/hazwong/824951/28SR_2/usrc/28SR_2_fmo_input.F27.012
-rw-r--r-- 1 hazwong frank        0 Dec  7 08:17 /scratch/hazwong/824951/28SR_2/usrc/28SR_2_fmo_input.F27.013
-rw-r--r-- 1 hazwong frank        0 Dec  7 08:17 /scratch/hazwong/824951/28SR_2/usrc/28SR_2_fmo_input.F27.014
-rw-r--r-- 1 hazwong frank        0 Dec  7 08:17 /scratch/hazwong/824951/28SR_2/usrc/28SR_2_fmo_input.F27.015
-rw-r--r-- 1 hazwong frank 33538048 Dec  7 15:22 /scratch/hazwong/824951/28SR_2/usrc/28SR_2_fmo_input.F40.000
-rw-r--r-- 1 hazwong frank 33538048 Dec  7 15:22 /scratch/hazwong/824951/28SR_2/usrc/28SR_2_fmo_input.F40.001
-rw-r--r-- 1 hazwong frank 33538048 Dec  7 15:22 /scratch/hazwong/824951/28SR_2/usrc/28SR_2_fmo_input.F40.002
-rw-r--r-- 1 hazwong frank 33538048 Dec  7 15:22 /scratch/hazwong/824951/28SR_2/usrc/28SR_2_fmo_input.F40.003
-rw-r--r-- 1 hazwong frank 33538048 Dec  7 15:22 /scratch/hazwong/824951/28SR_2/usrc/28SR_2_fmo_input.F40.004
-rw-r--r-- 1 hazwong frank 33538048 Dec  7 15:22 /scratch/hazwong/824951/28SR_2/usrc/28SR_2_fmo_input.F40.005
-rw-r--r-- 1 hazwong frank 33538048 Dec  7 15:22 /scratch/hazwong/824951/28SR_2/usrc/28SR_2_fmo_input.F40.006
-rw-r--r-- 1 hazwong frank 33538048 Dec  7 15:22 /scratch/hazwong/824951/28SR_2/usrc/28SR_2_fmo_input.F40.007
-rw-r--r-- 1 hazwong frank 33538048 Dec  7 15:22 /scratch/hazwong/824951/28SR_2/usrc/28SR_2_fmo_input.F40.008
-rw-r--r-- 1 hazwong frank 33538048 Dec  7 15:22 /scratch/hazwong/824951/28SR_2/usrc/28SR_2_fmo_input.F40.009
-rw-r--r-- 1 hazwong frank 33538048 Dec  7 15:22 /scratch/hazwong/824951/28SR_2/usrc/28SR_2_fmo_input.F40.010
-rw-r--r-- 1 hazwong frank 33538048 Dec  7 15:22 /scratch/hazwong/824951/28SR_2/usrc/28SR_2_fmo_input.F40.011
-rw-r--r-- 1 hazwong frank 33538048 Dec  7 15:22 /scratch/hazwong/824951/28SR_2/usrc/28SR_2_fmo_input.F40.012
-rw-r--r-- 1 hazwong frank 33538048 Dec  7 15:22 /scratch/hazwong/824951/28SR_2/usrc/28SR_2_fmo_input.F40.013
-rw-r--r-- 1 hazwong frank 33538048 Dec  7 15:22 /scratch/hazwong/824951/28SR_2/usrc/28SR_2_fmo_input.F40.014
-rw-r--r-- 1 hazwong frank 33538048 Dec  7 15:22 /scratch/hazwong/824951/28SR_2/usrc/28SR_2_fmo_input.F40.015
ls: No match.
ls: No match.
ls: No match.
Sun Dec  8 06:15:14 EST 2019
0.188u 0.086s 21:57:22.10 0.0%	0+0k 1200+176io 20pf+0w
